                         Program Version 4.2.1 -  RELEASE  -
|  1> !UKS BP86 EPR-II Grid7 veryTightSCF verySlowConv opt
|  2> #this is a BS-DFT calculation
|  3> %pal nprocs 32 end
|  4>
|  5> %maxcore 8000
|  6>
|  7> #BE SURE TO ADJUST THIS LINE BEFORE SUBMITTING IT WILL BE DIFFERENT FOR EACH JOB
|  8>
|  9> %cpcm
| 10>  epsilon 20
| 11> end
| 12>
| 13> %scf
| 14>   maxiter 3000
| 15>   DIISMaxEq 15
| 16>   directresetfreq 1
| 17>   #guessmode cmatrix
| 18> 	flipspin 0
| 19> 	finalms 0.5
| 20> end
| 21>
| 22> #aba conf.
| 23>
| 24> %basis
| 25> 	NewGTO Fe "CP(PPP)" end
| 26> 	NewGTO S "def2-TZVP" end
| 27> end
| 28>
| 29> %method
| 30> Z_solver DIIS
| 31> Z_MaxIter 128 # maximum number of CP-SCF iterations
| 32> Z_MaxDIIS 5 # for DIIS: maximum number of expansion vectors
| 33> Z_Shift 0.3 # for DIIS: level shift
| 34> Z_Tol 1e-6 # convergence tolerance on residual
| 35> End
| 36>
| 37> %method
| 38>  SpecialGridAtoms 26
| 39>  SpecialGridIntAcc 7
| 40> end
| 41>
| 42> # newGTO "EPR-III" end
| 43> #adjust charge and apply newGTO "EPR-III" end to the carbon radical and attached atoms. (atom 3)
| 44>
| 45> *xyz  0 10
| 46>   Fe  -0.83415998976572     -1.23971792857928      0.61725457023916
| 47>   Fe  -1.86833589348257     -3.30045189939537      1.67511163858285
| 48>   C   1.13197973975702     -2.14378054662167      0.67243775104067 newGTO "EPR-III" end
| 49>   C   1.26281565030758     -3.52907829482847      0.11117253158514
| 50>   H   1.86784802941843     -1.47325301667014      0.18955600689252
| 51>   H   1.31795349380407     -2.16103095922112      1.75663785470214
| 52>   S   -1.22326872212636     -1.60849460609045      2.98729371873049
| 53>   S   -3.24347280997614     -0.13110243155247      0.54955936807440
| 54>   S   -1.69952218074233     -3.20957446115087     -0.58079540225881
| 55>   N   -0.11559428561166      0.94194491204082      1.04381574177233
| 56>   C   -0.36060750813675      1.75748287823638     -0.10151370391014
| 57>   C   0.02013215019873      1.01953648181902     -1.40825682394948
| 58>   O   -0.37591318720958     -0.17903924530952     -1.44369915800905
| 59>   O   2.62292712920169     -4.12378191176352      0.40802918050105
| 60>   C   1.08869743153734     -3.69231495204309     -1.42128978599840
| 61>   O   1.13452739108864     -2.47144635791893     -2.17157714014113
| 62>   C   2.34078856369878     -4.48966261694444     -1.86625195903704
| 63>   O   2.72608470540759     -4.21865470866529     -3.21594363980434
| 64>   C   3.36730062681353     -4.09476333167731     -0.80463557279469
| 65>   O   0.61769809460422      1.67898975580470     -2.29607506887696
| 66>   H   2.13764996505383     -5.56930542355713     -1.79052142136596
| 67>   H   0.16416552962661     -4.23531235513822     -1.64703601141179
| 68>   H   -0.60432705316169      1.26178312742659      1.88119184903134
| 69>   H   0.87950101005970      0.80866550325394      1.23859492775758
| 70>   H   0.52059851431475     -1.80806447299514     -1.77072274554136
| 71>   H   2.42201479065615     -3.29494325676243     -3.36476824303928
| 72>   H   0.56694840645750     -4.21779432055686      0.57544781753917
| 73>   H   3.76339492864021     -3.08141350633644     -1.03024607966273
| 74>   H   4.21133683456277     -4.79569684628316     -0.71955002843076
| 75>   H   -1.43939961855433      1.96862476488167     -0.14574773161731
| 76>   N   0.37071866735345      3.09041837992076     -0.13055936772498
| 77>   C   -3.85689262565831     -0.48353087312607     -1.10796498055557
| 78>   N   -4.37734010150299     -1.89723919172762     -1.14907669763054
| 79>   H   -3.04813564444174     -0.44293700623517     -1.85028815759829
| 80>   H   -4.67509528725352      0.18146764465097     -1.41369841605608
| 81>   N   -0.90984887419801     -5.01481339288798      2.29268558487121
| 82>   C   0.00471962869692     -5.07407309070348      3.26206742296432
| 83>   N   0.55724709346548     -6.30798380902571      3.29265105606130
| 84>   C   -0.02083545526184     -7.07636714268948      2.30133956827393
| 85>   C   -0.93438367373112     -6.25904427960401      1.68256017736977
| 86>   H   -1.58573224814425     -6.46292954969993      0.83989448471971
| 87>   H   1.28302439332745     -6.61374404870580      3.93607451152762
| 88>   H   0.26659565458330     -8.10758727907238      2.13267632484234
| 89>   H   0.28007974261310     -4.25296233974501      3.91510748584729
| 90>   N   -3.91348299580170     -3.45534304989889      1.97457035596283
| 91>   C   -4.61121062049787     -2.53237826403489      2.63757827122182
| 92>   N   -5.93148297388892     -2.69007674758542      2.39017172492019
| 93>   C   -4.82685305303125     -4.22181976043545      1.26818237537665
| 94>   C   -6.09394830407632     -3.75188842397875      1.51775394979816
| 95>   H   -4.17835850580306     -1.75545618236488      3.25734708593199
| 96>   H   -4.50918745710879     -5.03500296540461      0.62489599039362
| 97>   H   -7.07140308359597     -4.07084182685403      1.17493343620511
| 98>   H   -6.67663721422204     -2.11071003939282      2.76797595495362
| 99>   H   -4.76859132324889     -2.15735311864575     -2.06399794624407
|100>   H   -5.09286095963240     -2.04203813576921     -0.42526859309699
|101>   H   -3.51796156292808     -2.53569269034033     -0.92469433371501
|102>   H   0.69228367949631      3.16761063348608     -1.12624815485376
|103>   H   1.19649263398114      3.08595232379304      0.48070712220042
|104>   H   -0.22207126593199      3.88637425267526      0.12924132343374
|105> *
|106>
|107> %eprnmr
|108>     gtensor true
|109>     nuclei = all H {aiso, adip, rho} # this compute the hyperfine coupling for all hydrogens.
|110>     nuclei = all C {aiso, adip, rho}
|111>     nuclei = all Fe {aiso, adip, rho}
|112> end
|113>
|114> %plots
|115>   dim1 150
|116>   dim2 150
|117>   dim3 150
|118>   min1 -20.0
|119>   max1 20.0
|120>   min2 -20.0
|121>   max2 20.0
|122>   min3 -20.0
|123>   max3 20.0
|124>   Format Gaussian_Cube
|125>   MO("5-dAdo_neutralbp86_sbdft_aba_MO156.cube", 156, 1);
|126>   MO("5-dAdo_neutralbp86_sbdft_aba_MO155.cube", 155, 1);
|127>   MO("5-dAdo_neutralbp86_sbdft_aba_MO154.cube", 154, 1);
|128>   MO("5-dAdo_neutralbp86_sbdft_aba_MO153.cube", 153, 1);
|129>   MO("5-dAdo_neutralbp86_sbdft_aba_MO152.cube", 152, 1);
|130>   MO("5-dAdo_neutralbp86_sbdft_aba_MO151.cube", 151, 1);
|131>   MO("5-dAdo_neutralbp86_sbdft_aba_MO150.cube", 150, 1);
|132>   MO("5-dAdo_neutralbp86_sbdft_aba_MO149.cube", 149, 1);
|133>   MO("5-dAdo_neutralbp86_sbdft_aba_MO148.cube", 148, 1);
|134>   MO("5-dAdo_neutralbp86_sbdft_aba_MO147.cube", 147, 1);
|135>   MO("5-dAdo_neutralbp86_sbdft_aba_MO146.cube", 146, 1);
|136>   MO("5-dAdo_neutralbp86_sbdft_aba_MO145.cube", 145, 1);
|137>   MO("5-dAdo_neutralbp86_sbdft_aba_MO144.cube", 144, 1);
|138>   MO("5-dAdo_neutralbp86_sbdft_aba_MO143.cube", 143, 1);
|139>   MO("5-dAdo_neutralbp86_sbdft_aba_MO142.cube", 142, 1);
|140> End
|141>
|142>                          ****END OF INPUT****
 Total Charge           Charge          ....    0
 Multiplicity           Mult            ....   10
 Number of Electrons    NEL             ....  301
FINAL SINGLE POINT ENERGY     -5032.887433825303
FINAL SINGLE POINT ENERGY     -5032.900974998497
FINAL SINGLE POINT ENERGY     -5032.903560216228
FINAL SINGLE POINT ENERGY     -5032.904674111974
FINAL SINGLE POINT ENERGY     -5032.908153590718
FINAL SINGLE POINT ENERGY     -5032.912642424001
FINAL SINGLE POINT ENERGY     -5032.914047835617
FINAL SINGLE POINT ENERGY     -5032.916005937239
FINAL SINGLE POINT ENERGY     -5032.916776743466
FINAL SINGLE POINT ENERGY     -5032.917353307606
FINAL SINGLE POINT ENERGY     -5032.924697521305
FINAL SINGLE POINT ENERGY     -5032.924637813027
FINAL SINGLE POINT ENERGY     -5032.924692932206
FINAL SINGLE POINT ENERGY     -5032.924659884479
FINAL SINGLE POINT ENERGY     -5032.924604991992
FINAL SINGLE POINT ENERGY     -5032.924636538276
FINAL SINGLE POINT ENERGY     -5032.924530432690
FINAL SINGLE POINT ENERGY     -5032.924631871437
FINAL SINGLE POINT ENERGY     -5032.924635327178
                    ***********************HURRAY********************

CARTESIAN COORDINATES (ANGSTROEM)
---------------------------------
  Fe    -0.919729   -1.294897    0.637086
  Fe    -2.074996   -3.350040    1.820786
  C      1.038110   -1.904391    0.395646
  C      1.452732   -3.126205   -0.377335
  H      1.605548   -1.039543    0.007595
  H      1.305357   -2.044380    1.456171
  S     -1.235767   -1.607099    2.857476
  S     -3.065597   -0.040811    0.343926
  S     -1.746892   -3.175145   -0.369805
  N     -0.064207    0.682517    0.828085
  C     -0.209975    1.625625   -0.279345
  C      0.518760    1.126532   -1.576911
  O      0.032285    0.087205   -2.118539
  O      2.882043   -3.453656   -0.070894
  C      1.400099   -3.046766   -1.913663
  O      1.891061   -1.814455   -2.465984
  C      2.421955   -4.127243   -2.334777
  O      2.882071   -3.961928   -3.681577
  C      3.529019   -3.956386   -1.262002
  O      1.520425    1.820983   -1.945296
  H      1.961288   -5.126551   -2.267121
  H      0.379245   -3.263052   -2.273733
  H     -0.582752    1.023943    1.646355
  H      0.922401    0.580346    1.096396
  H      1.178320   -1.116998   -2.373355
  H      2.863033   -2.987432   -3.809469
  H      0.844307   -3.999080   -0.070952
  H      4.281001   -3.227358   -1.624005
  H      4.038259   -4.909235   -1.030026
  H     -1.287189    1.754089   -0.462747
  N      0.407353    2.986303    0.019858
  C     -3.509718   -0.269134   -1.396135
  N     -4.120990   -1.644633   -1.586690
  H     -2.618514   -0.240741   -2.041547
  H     -4.242913    0.476520   -1.737450
  N     -1.378731   -5.171816    2.564282
  C     -1.203261   -5.544380    3.845948
  N     -0.649989   -6.794458    3.911038
  C     -0.463978   -7.257503    2.618397
  C     -0.919342   -6.238654    1.790111
  H     -0.938655   -6.194172    0.702818
  H     -0.410942   -7.292304    4.766393
  H     -0.036600   -8.234542    2.407523
  H     -1.447741   -4.950960    4.724369
  N     -4.070212   -3.680344    2.398430
  C     -5.010737   -2.719428    2.349133
  N     -6.210473   -3.204011    2.783442
  C     -4.708687   -4.820508    2.883631
  C     -6.047206   -4.538762    3.127036
  H     -4.843216   -1.700220    1.997139
  H     -4.174276   -5.757730    3.024183
  H     -6.867672   -5.145626    3.501720
  H     -7.076905   -2.672312    2.844927
  H     -4.312738   -1.862390   -2.575245
  H     -4.996416   -1.724625   -1.053686
  H     -3.394310   -2.351568   -1.177262
  H      1.223904    3.002190   -0.657546
  H      0.727143    3.086620    0.991363
  H     -0.235782    3.758956   -0.194078

 Multiplicity           Mult            ....    2
 Number of Electrons    NEL             ....  301
 Basis Dimension        Dim             ....  892

ORBITAL ENERGIES
----------------
                 SPIN UP ORBITALS
  NO   OCC          E(Eh)            E(eV)
   0   1.0000    -254.769686     -6932.6356
   1   1.0000    -254.757582     -6932.3062
   2   1.0000     -88.036385     -2395.5918
   3   1.0000     -88.024300     -2395.2630
   4   1.0000     -88.021126     -2395.1766
   5   1.0000     -29.511115      -803.0383
   6   1.0000     -29.477541      -802.1247
   7   1.0000     -25.460709      -692.8211
   8   1.0000     -25.440306      -692.2659
   9   1.0000     -25.438319      -692.2119
  10   1.0000     -25.428656      -691.9489
  11   1.0000     -25.424767      -691.8431
  12   1.0000     -25.421975      -691.7671
  13   1.0000     -18.782172      -511.0889
  14   1.0000     -18.772301      -510.8203
  15   1.0000     -18.770118      -510.7609
  16   1.0000     -18.768303      -510.7115
  17   1.0000     -18.761067      -510.5146
  18   1.0000     -14.108834      -383.9209
  19   1.0000     -14.086549      -383.3145
  20   1.0000     -14.084555      -383.2602
  21   1.0000     -14.081810      -383.1855
  22   1.0000     -14.053523      -382.4158
  23   1.0000     -14.037134      -381.9698
  24   1.0000     -14.037071      -381.9681
  25   1.0000     -10.026497      -272.8349
  26   1.0000     -10.003933      -272.2209
  27   1.0000      -9.977569      -271.5035
  28   1.0000      -9.976215      -271.4666
  29   1.0000      -9.964763      -271.1550
  30   1.0000      -9.956007      -270.9167
  31   1.0000      -9.955727      -270.9091
  32   1.0000      -9.954353      -270.8717
  33   1.0000      -9.946506      -270.6582
  34   1.0000      -9.944133      -270.5936
  35   1.0000      -9.941808      -270.5304
  36   1.0000      -9.941804      -270.5302
  37   1.0000      -9.934413      -270.3291
  38   1.0000      -9.859662      -268.2950
  39   1.0000      -7.617387      -207.2796
  40   1.0000      -7.605765      -206.9634
  41   1.0000      -7.602627      -206.8780
  42   1.0000      -5.639214      -153.4508
  43   1.0000      -5.632858      -153.2779
  44   1.0000      -5.630794      -153.2217
  45   1.0000      -5.623280      -153.0172
  46   1.0000      -5.622558      -152.9976
  47   1.0000      -5.622108      -152.9853
  48   1.0000      -5.621083      -152.9575
  49   1.0000      -5.619469      -152.9135
  50   1.0000      -5.618490      -152.8869
  51   1.0000      -3.284579       -89.3779
  52   1.0000      -3.183389       -86.6244
  53   1.0000      -2.126113       -57.8545
  54   1.0000      -2.087729       -56.8100
  55   1.0000      -2.084470       -56.7213
  56   1.0000      -2.004083       -54.5339
  57   1.0000      -1.999580       -54.4113
  58   1.0000      -1.995876       -54.3106
  59   1.0000      -0.967947       -26.3392
  60   1.0000      -0.941924       -25.6311
  61   1.0000      -0.939452       -25.5638
  62   1.0000      -0.936958       -25.4959
  63   1.0000      -0.914755       -24.8918
  64   1.0000      -0.910720       -24.7820
  65   1.0000      -0.902014       -24.5450
  66   1.0000      -0.881249       -23.9800
  67   1.0000      -0.877254       -23.8713
  68   1.0000      -0.833095       -22.6697
  69   1.0000      -0.808060       -21.9884
  70   1.0000      -0.805709       -21.9244
  71   1.0000      -0.684186       -18.6177
  72   1.0000      -0.682109       -18.5611
  73   1.0000      -0.679655       -18.4943
  74   1.0000      -0.666502       -18.1364
  75   1.0000      -0.664421       -18.0798
  76   1.0000      -0.642096       -17.4723
  77   1.0000      -0.582139       -15.8408
  78   1.0000      -0.571663       -15.5557
  79   1.0000      -0.566775       -15.4227
  80   1.0000      -0.564740       -15.3673
  81   1.0000      -0.557743       -15.1770
  82   1.0000      -0.545237       -14.8367
  83   1.0000      -0.543580       -14.7916
  84   1.0000      -0.542940       -14.7742
  85   1.0000      -0.531420       -14.4607
  86   1.0000      -0.528142       -14.3715
  87   1.0000      -0.516987       -14.0679
  88   1.0000      -0.512457       -13.9447
  89   1.0000      -0.511284       -13.9127
  90   1.0000      -0.501890       -13.6571
  91   1.0000      -0.491478       -13.3738
  92   1.0000      -0.484245       -13.1770
  93   1.0000      -0.481597       -13.1049
  94   1.0000      -0.469679       -12.7806
  95   1.0000      -0.465282       -12.6610
  96   1.0000      -0.454847       -12.3770
  97   1.0000      -0.435562       -11.8522
  98   1.0000      -0.418494       -11.3878
  99   1.0000      -0.412310       -11.2195
 100   1.0000      -0.407204       -11.0806
 101   1.0000      -0.406077       -11.0499
 102   1.0000      -0.402980       -10.9656
 103   1.0000      -0.397710       -10.8222
 104   1.0000      -0.396950       -10.8015
 105   1.0000      -0.395951       -10.7744
 106   1.0000      -0.395354       -10.7581
 107   1.0000      -0.392602       -10.6833
 108   1.0000      -0.383889       -10.4462
 109   1.0000      -0.377849       -10.2818
 110   1.0000      -0.375802       -10.2261
 111   1.0000      -0.374752       -10.1975
 112   1.0000      -0.372965       -10.1489
 113   1.0000      -0.361230        -9.8296
 114   1.0000      -0.355553        -9.6751
 115   1.0000      -0.349000        -9.4968
 116   1.0000      -0.338519        -9.2116
 117   1.0000      -0.327175        -8.9029
 118   1.0000      -0.321813        -8.7570
 119   1.0000      -0.314560        -8.5596
 120   1.0000      -0.309170        -8.4129
 121   1.0000      -0.304218        -8.2782
 122   1.0000      -0.298979        -8.1356
 123   1.0000      -0.295100        -8.0301
 124   1.0000      -0.287533        -7.8242
 125   1.0000      -0.277951        -7.5634
 126   1.0000      -0.274240        -7.4625
 127   1.0000      -0.273527        -7.4431
 128   1.0000      -0.260157        -7.0792
 129   1.0000      -0.256772        -6.9871
 130   1.0000      -0.251305        -6.8384
 131   1.0000      -0.244697        -6.6586
 132   1.0000      -0.235967        -6.4210
 133   1.0000      -0.232930        -6.3384
 134   1.0000      -0.227304        -6.1853
 135   1.0000      -0.224912        -6.1202
 136   1.0000      -0.221364        -6.0236
 137   1.0000      -0.219951        -5.9852
 138   1.0000      -0.217886        -5.9290
 139   1.0000      -0.214541        -5.8380
 140   1.0000      -0.214058        -5.8248
 141   1.0000      -0.207963        -5.6590
 142   1.0000      -0.197416        -5.3720
 143   1.0000      -0.186973        -5.0878
 144   1.0000      -0.176375        -4.7994
 145   1.0000      -0.173181        -4.7125
 146   1.0000      -0.161885        -4.4051
 147   1.0000      -0.155800        -4.2395
 148   1.0000      -0.149836        -4.0772
 149   1.0000      -0.138700        -3.7742
 150   1.0000      -0.109054        -2.9675
 151   0.0000      -0.087358        -2.3771
 152   0.0000      -0.082724        -2.2510
 153   0.0000      -0.069549        -1.8925
 154   0.0000      -0.034247        -0.9319
 155   0.0000      -0.030275        -0.8238

                 SPIN DOWN ORBITALS
  NO   OCC          E(Eh)            E(eV)
   0   1.0000    -254.769732     -6932.6369
   1   1.0000    -254.757471     -6932.3032
   2   1.0000     -88.036392     -2395.5920
   3   1.0000     -88.024595     -2395.2710
   4   1.0000     -88.020363     -2395.1558
   5   1.0000     -29.520552      -803.2951
   6   1.0000     -29.455830      -801.5339
   7   1.0000     -25.469494      -693.0602
   8   1.0000     -25.453473      -692.6242
   9   1.0000     -25.449261      -692.5096
  10   1.0000     -25.414921      -691.5752
  11   1.0000     -25.400796      -691.1908
  12   1.0000     -25.399054      -691.1434
  13   1.0000     -18.782174      -511.0889
  14   1.0000     -18.772102      -510.8149
  15   1.0000     -18.770109      -510.7606
  16   1.0000     -18.768349      -510.7127
  17   1.0000     -18.761272      -510.5202
  18   1.0000     -14.108855      -383.9215
  19   1.0000     -14.086251      -383.3064
  20   1.0000     -14.084425      -383.2567
  21   1.0000     -14.081829      -383.1860
  22   1.0000     -14.053480      -382.4146
  23   1.0000     -14.036285      -381.9467
  24   1.0000     -14.036275      -381.9465
  25   1.0000     -10.026505      -272.8351
  26   1.0000     -10.003981      -272.2222
  27   1.0000      -9.977343      -271.4973
  28   1.0000      -9.976447      -271.4729
  29   1.0000      -9.964773      -271.1553
  30   1.0000      -9.955996      -270.9164
  31   1.0000      -9.955723      -270.9090
  32   1.0000      -9.954278      -270.8697
  33   1.0000      -9.946469      -270.6572
  34   1.0000      -9.944037      -270.5910
  35   1.0000      -9.941800      -270.5301
  36   1.0000      -9.941793      -270.5299
  37   1.0000      -9.934419      -270.3293
  38   1.0000      -9.858000      -268.2498
  39   1.0000      -7.617403      -207.2801
  40   1.0000      -7.606046      -206.9710
  41   1.0000      -7.601887      -206.8579
  42   1.0000      -5.639247      -153.4517
  43   1.0000      -5.632853      -153.2777
  44   1.0000      -5.630808      -153.2221
  45   1.0000      -5.623756      -153.0302
  46   1.0000      -5.622992      -153.0094
  47   1.0000      -5.622350      -152.9919
  48   1.0000      -5.619906      -152.9254
  49   1.0000      -5.618979      -152.9002
  50   1.0000      -5.617105      -152.8492
  51   1.0000      -3.279292       -89.2341
  52   1.0000      -3.161063       -86.0169
  53   1.0000      -2.120916       -57.7131
  54   1.0000      -2.081913       -56.6517
  55   1.0000      -2.078313       -56.5538
  56   1.0000      -1.991857       -54.2012
  57   1.0000      -1.975443       -53.7545
  58   1.0000      -1.968095       -53.5546
  59   1.0000      -0.968087       -26.3430
  60   1.0000      -0.941859       -25.6293
  61   1.0000      -0.938858       -25.5476
  62   1.0000      -0.936600       -25.4862
  63   1.0000      -0.914541       -24.8859
  64   1.0000      -0.910790       -24.7839
  65   1.0000      -0.901955       -24.5435
  66   1.0000      -0.881422       -23.9847
  67   1.0000      -0.876798       -23.8589
  68   1.0000      -0.833164       -22.6715
  69   1.0000      -0.807222       -21.9656
  70   1.0000      -0.804876       -21.9018
  71   1.0000      -0.683829       -18.6079
  72   1.0000      -0.682040       -18.5593
  73   1.0000      -0.679335       -18.4856
  74   1.0000      -0.665939       -18.1211
  75   1.0000      -0.664355       -18.0780
  76   1.0000      -0.642185       -17.4747
  77   1.0000      -0.581015       -15.8102
  78   1.0000      -0.569261       -15.4904
  79   1.0000      -0.566021       -15.4022
  80   1.0000      -0.564175       -15.3520
  81   1.0000      -0.557007       -15.1569
  82   1.0000      -0.544745       -14.8233
  83   1.0000      -0.543196       -14.7811
  84   1.0000      -0.542572       -14.7641
  85   1.0000      -0.531436       -14.4611
  86   1.0000      -0.528069       -14.3695
  87   1.0000      -0.517111       -14.0713
  88   1.0000      -0.512147       -13.9362
  89   1.0000      -0.511118       -13.9082
  90   1.0000      -0.501676       -13.6513
  91   1.0000      -0.491170       -13.3654
  92   1.0000      -0.484188       -13.1754
  93   1.0000      -0.480776       -13.0826
  94   1.0000      -0.469620       -12.7790
  95   1.0000      -0.465352       -12.6629
  96   1.0000      -0.455054       -12.3826
  97   1.0000      -0.435519       -11.8511
  98   1.0000      -0.418413       -11.3856
  99   1.0000      -0.412252       -11.2179
 100   1.0000      -0.406605       -11.0643
 101   1.0000      -0.405669       -11.0388
 102   1.0000      -0.402159       -10.9433
 103   1.0000      -0.397446       -10.8151
 104   1.0000      -0.396240       -10.7822
 105   1.0000      -0.395935       -10.7739
 106   1.0000      -0.395007       -10.7487
 107   1.0000      -0.392558       -10.6820
 108   1.0000      -0.383803       -10.4438
 109   1.0000      -0.377762       -10.2794
 110   1.0000      -0.375354       -10.2139
 111   1.0000      -0.374347       -10.1865
 112   1.0000      -0.373112       -10.1529
 113   1.0000      -0.361202        -9.8288
 114   1.0000      -0.355659        -9.6780
 115   1.0000      -0.349376        -9.5070
 116   1.0000      -0.338754        -9.2180
 117   1.0000      -0.327322        -8.9069
 118   1.0000      -0.316957        -8.6249
 119   1.0000      -0.314060        -8.5460
 120   1.0000      -0.305159        -8.3038
 121   1.0000      -0.302059        -8.2195
 122   1.0000      -0.295427        -8.0390
 123   1.0000      -0.292939        -7.9713
 124   1.0000      -0.288110        -7.8399
 125   1.0000      -0.274934        -7.4813
 126   1.0000      -0.273391        -7.4394
 127   1.0000      -0.271176        -7.3791
 128   1.0000      -0.258726        -7.0403
 129   1.0000      -0.252591        -6.8733
 130   1.0000      -0.244985        -6.6664
 131   1.0000      -0.243218        -6.6183
 132   1.0000      -0.236089        -6.4243
 133   1.0000      -0.233011        -6.3405
 134   1.0000      -0.227218        -6.1829
 135   1.0000      -0.225864        -6.1461
 136   1.0000      -0.220332        -5.9955
 137   1.0000      -0.219352        -5.9689
 138   1.0000      -0.218481        -5.9452
 139   1.0000      -0.215783        -5.8718
 140   1.0000      -0.214759        -5.8439
 141   1.0000      -0.209036        -5.6882
 142   1.0000      -0.199602        -5.4315
 143   1.0000      -0.189448        -5.1551
 144   1.0000      -0.183402        -4.9906
 145   1.0000      -0.171673        -4.6714
 146   1.0000      -0.160472        -4.3667
 147   1.0000      -0.146546        -3.9877
 148   1.0000      -0.141614        -3.8535
 149   1.0000      -0.102608        -2.7921
 150   0.0000      -0.081226        -2.2103
 151   0.0000      -0.078380        -2.1328
 152   0.0000      -0.066511        -1.8099
 153   0.0000      -0.062828        -1.7096
 154   0.0000      -0.037452        -1.0191

MULLIKEN ATOMIC CHARGES AND SPIN POPULATIONS
--------------------------------------------
   0 Fe:    0.784436   -2.470537
   1 Fe:    0.092833    3.192179
   2 C :   -0.484422    0.144764
   3 C :    0.009300    0.003343
   4 H :    0.078703   -0.002299
   5 H :    0.105895   -0.019158
   6 S :   -0.727849   -0.064773
   7 S :   -0.472010    0.010025
   8 S :   -0.773503    0.139138
   9 N :   -0.376249    0.005613
  10 C :   -0.046628   -0.004661
  11 C :    0.106244    0.001503
  12 O :   -0.335220   -0.006475
  13 O :   -0.305511    0.004941
  14 C :   -0.053049    0.002882
  15 O :   -0.461606    0.000155
  16 C :   -0.107221   -0.000039
  17 O :   -0.431786   -0.000067
  18 C :   -0.220283    0.000678
  19 O :   -0.407484   -0.002135
  20 H :    0.165971    0.000031
  21 H :    0.154901   -0.000168
  22 H :    0.310655   -0.001640
  23 H :    0.291751    0.001417
  24 H :    0.306550    0.000173
  25 H :    0.302437   -0.000004
  26 H :    0.138242   -0.000219
  27 H :    0.156904   -0.000019
  28 H :    0.151934    0.000710
  29 H :    0.216940   -0.000490
  30 N :   -0.374093   -0.000564
  31 C :   -0.313118    0.001612
  32 N :   -0.354064    0.013705
  33 H :    0.213080    0.000222
  34 H :    0.183670   -0.000322
  35 N :    0.076515    0.016257
  36 C :   -0.255452   -0.015918
  37 N :    0.026990   -0.001841
  38 C :   -0.270720    0.004663
  39 C :   -0.162975   -0.002853
  40 H :    0.170978    0.001907
  41 H :    0.298030    0.002085
  42 H :    0.182579    0.000598
  43 H :    0.184183    0.001640
  44 N :    0.077432    0.000374
  45 C :   -0.253010    0.017055
  46 N :    0.046461    0.003570
  47 C :   -0.149249    0.006225
  48 C :   -0.296918    0.000784
  49 H :    0.179604   -0.000449
  50 H :    0.170710    0.000667
  51 H :    0.183876    0.000432
  52 H :    0.297010    0.001671
  53 H :    0.327872   -0.000364
  54 H :    0.329433   -0.000008
  55 H :    0.289127    0.014053
  56 H :    0.315658    0.000108
  57 H :    0.347917    0.000096
  58 H :    0.357601   -0.000273
Sum of atomic charges         :   -0.0000000

LOEWDIN ATOMIC CHARGES AND SPIN POPULATIONS
-------------------------------------------
   0 Fe:   -0.020676   -2.359966
   1 Fe:   -0.022316    3.069099
   2 C :   -1.095632    0.073268
   3 C :    0.129114    0.002405
   4 H :    0.165466    0.000810
   5 H :    0.178587   -0.005552
   6 S :   -0.308213   -0.036597
   7 S :   -0.238559   -0.002823
   8 S :   -0.271349    0.161322
   9 N :    0.102899    0.001999
  10 C :   -0.020707   -0.003058
  11 C :   -0.187908   -0.000923
  12 O :   -0.227420   -0.006880
  13 O :   -0.140902    0.006472
  14 C :   -0.043608    0.002178
  15 O :   -0.115683    0.000416
  16 C :   -0.064283    0.000214
  17 O :   -0.117947   -0.000042
  18 C :   -0.012047    0.000931
  19 O :   -0.269306   -0.001659
  20 H :    0.060402    0.000004
  21 H :    0.060887    0.000575
  22 H :    0.108188   -0.000823
  23 H :    0.109271    0.000780
  24 H :    0.078793    0.000051
  25 H :    0.091490    0.000003
  26 H :    0.078579    0.000117
  27 H :    0.043589   -0.000007
  28 H :    0.039477    0.000501
  29 H :    0.079295   -0.000374
  30 N :    0.335458   -0.000928
  31 C :   -0.095995    0.000801
  32 N :    0.266717    0.011178
  33 H :    0.059283   -0.000235
  34 H :    0.048700   -0.000064
  35 N :   -0.036799    0.031125
  36 C :   -0.048777   -0.012335
  37 N :    0.164555   -0.001540
  38 C :   -0.066096    0.003631
  39 C :   -0.083444    0.000485
  40 H :    0.063656    0.000746
  41 H :    0.121046    0.000738
  42 H :    0.065236    0.000532
  43 H :    0.069469    0.000000
  44 N :   -0.043340    0.025472
  45 C :   -0.046630    0.013037
  46 N :    0.167518    0.005129
  47 C :   -0.077104    0.005566
  48 C :   -0.065236    0.001147
  49 H :    0.070080    0.000088
  50 H :    0.062461    0.000512
  51 H :    0.065006    0.000318
  52 H :    0.121787    0.000827
  53 H :    0.117116    0.000524
  54 H :    0.116794    0.000689
  55 H :    0.091039    0.010418
  56 H :    0.121697    0.000017
  57 H :    0.131062   -0.000140
  58 H :    0.135259   -0.000181

  Mayer bond orders larger than 0.100000
B(  0-Fe,  1-Fe) :   0.2442 B(  0-Fe,  2-C ) :   0.6951 B(  0-Fe,  6-S ) :   0.9884
B(  0-Fe,  7-S ) :   0.5724 B(  0-Fe,  8-S ) :   0.5557 B(  0-Fe,  9-N ) :   0.3951
B(  0-Fe, 12-O ) :   0.1492 B(  1-Fe,  6-S ) :   1.2077 B(  1-Fe,  8-S ) :   1.0904
B(  1-Fe, 35-N ) :   0.5612 B(  1-Fe, 44-N ) :   0.5423 B(  2-C ,  3-C ) :   1.0149
B(  2-C ,  4-H ) :   0.9621 B(  2-C ,  5-H ) :   0.9267 B(  3-C , 13-O ) :   0.8631
B(  3-C , 14-C ) :   0.8822 B(  3-C , 26-H ) :   0.9580 B(  7-S , 31-C ) :   1.0727
B(  8-S , 55-H ) :   0.2396 B(  9-N , 10-C ) :   1.0197 B(  9-N , 22-H ) :   0.8916
B(  9-N , 23-H ) :   0.8893 B( 10-C , 11-C ) :   0.8521 B( 10-C , 29-H ) :   0.9053
B( 10-C , 30-N ) :   0.9109 B( 11-C , 12-O ) :   1.5578 B( 11-C , 19-O ) :   1.6064
B( 12-O , 19-O ) :   0.1099 B( 12-O , 24-H ) :   0.1349 B( 13-O , 18-C ) :   1.0200
B( 14-C , 15-O ) :   1.0031 B( 14-C , 16-C ) :   0.9732 B( 14-C , 21-H ) :   0.9152
B( 15-O , 24-H ) :   0.7996 B( 16-C , 17-O ) :   1.0331 B( 16-C , 18-C ) :   0.9240
B( 16-C , 20-H ) :   0.9558 B( 17-O , 25-H ) :   0.8724 B( 18-C , 27-H ) :   0.9402
B( 18-C , 28-H ) :   0.9417 B( 19-O , 56-H ) :   0.1539 B( 30-N , 56-H ) :   0.7861
B( 30-N , 57-H ) :   0.8763 B( 30-N , 58-H ) :   0.8700 B( 31-C , 32-N ) :   0.9206
B( 31-C , 33-H ) :   0.9144 B( 31-C , 34-H ) :   0.9425 B( 32-N , 53-H ) :   0.8808
B( 32-N , 54-H ) :   0.8843 B( 32-N , 55-H ) :   0.7220 B( 35-N , 36-C ) :   1.4195
B( 35-N , 39-C ) :   1.2678 B( 36-C , 37-N ) :   1.3410 B( 36-C , 38-C ) :   0.1113
B( 36-C , 43-H ) :   0.9333 B( 37-N , 38-C ) :   1.2925 B( 37-N , 41-H ) :   0.8744
B( 38-C , 39-C ) :   1.5498 B( 38-C , 42-H ) :   0.9528 B( 39-C , 40-H ) :   0.9506
B( 44-N , 45-C ) :   1.4462 B( 44-N , 47-C ) :   1.2765 B( 45-C , 46-N ) :   1.3596
B( 45-C , 48-C ) :   0.1151 B( 45-C , 49-H ) :   0.9247 B( 46-N , 48-C ) :   1.2831
B( 46-N , 52-H ) :   0.8750 B( 47-C , 48-C ) :   1.5494 B( 47-C , 50-H ) :   0.9487
B( 48-C , 51-H ) :   0.9501

FINAL SINGLE POINT ENERGY     -5032.924635948429

DIPOLE MOMENT
-------------
                                X             Y             Z
Electronic contribution:    -13.86364      -0.98307      17.48806
Nuclear contribution   :      6.35135       3.19115     -13.93940
                        -----------------------------------------
Total Dipole Moment    :     -7.51229       2.20808       3.54867
                        -----------------------------------------
Magnitude (a.u.)       :      8.59669
Magnitude (Debye)      :     21.85106

Rotational constants in cm-1:     0.004454     0.002939     0.002161
Rotational constants in MHz :   133.516398    88.107128    64.797277

                             ****ORCA TERMINATED NORMALLY****
TOTAL RUN TIME: 1 days 3 hours 31 minutes 46 seconds 743 msec
