                         Program Version 4.2.1 -  RELEASE  -
|  1> !UKS BHandHLYP EPR-II Grid7 veryTightSCF verySlowConv opt
|  2> #this is a BS-DFT calculation
|  3> %pal nprocs 32 end
|  4>
|  5> %maxcore 8000
|  6>
|  7> #BE SURE TO ADJUST THIS LINE BEFORE SUBMITTING IT WILL BE DIFFERENT FOR EACH JOB
|  8>
|  9> %cpcm
| 10>  epsilon 20
| 11> end
| 12>
| 13> %scf
| 14>   maxiter 3000
| 15>   DIISMaxEq 15
| 16>   directresetfreq 1
| 17>   #guessmode cmatrix
| 18> 	flipspin 2
| 19> 	finalms 4.5
| 20> end
| 21>
| 22> #aab conf.
| 23>
| 24> %basis
| 25> 	NewGTO Fe "CP(PPP)" end
| 26> 	NewGTO S "def2-TZVP" end
| 27> end
| 28>
| 29> %method
| 30> Z_solver DIIS
| 31> Z_MaxIter 128 # maximum number of CP-SCF iterations
| 32> Z_MaxDIIS 5 # for DIIS: maximum number of expansion vectors
| 33> Z_Shift 0.3 # for DIIS: level shift
| 34> Z_Tol 1e-6 # convergence tolerance on residual
| 35> End
| 36>
| 37> %method
| 38>  SpecialGridAtoms 26
| 39>  SpecialGridIntAcc 7
| 40> end
| 41>
| 42> # newGTO "EPR-III" end
| 43> #adjust charge and apply newGTO "EPR-III" end to the carbon radical and attached atoms. (atom 3)
| 44>
| 45> *xyz  -2 10
| 46>   Fe  -0.70517497012597     -1.07534324561852      0.45446970515623
| 47>   Fe  -2.08913061707299     -3.39246781688020      1.65277853996235
| 48>   C   1.42836624293416     -1.45014887944105      0.56301963565503 newGTO "EPR-III" end
| 49>   C   1.98116560472274     -2.66778749807828     -0.08632622724847
| 50>   H   1.93138780570586     -0.56896072252216      0.16895848510246
| 51>   H   1.60852178490362     -1.49968447717877      1.63238906828163
| 52>   S   -1.16030434907796     -1.61074116239446      2.82435561556593
| 53>   S   -3.31145426468432     -0.61924085511487      0.32189485587450
| 54>   S   -1.54784128418888     -3.17433650972524     -0.60888656243248
| 55>   N   -0.15945538712374      1.00655064044259      1.02444415744282
| 56>   C   -0.23690973187088      1.91495210413781     -0.10593205591117
| 57>   C   -0.10313080289134      1.18551209911168     -1.42866687031492
| 58>   O   -0.27516167889617     -0.06302647757334     -1.40166642184391
| 59>   O   3.42392229027382     -2.82640509830760      0.15790847551984
| 60>   C   1.83533636558103     -2.74435103050357     -1.59738527295857
| 61>   O   1.91999619207646     -1.49545802448325     -2.24802626596491
| 62>   C   3.05427063180788     -3.53896247286467     -2.02220218422722
| 63>   O   3.39458951794283     -3.37928259063561     -3.37439293376588
| 64>   C   4.10648546424886     -3.03561618589597     -1.05187157921815
| 65>   O   0.14093622185516      1.84415538323526     -2.43482717805205
| 66>   H   2.87291444068830     -4.59452561765977     -1.85423682209823
| 67>   H   0.90138721906639     -3.22854736331704     -1.84616814139280
| 68>   H   -0.80181922771576      1.27884648266661      1.74557373601104
| 69>   H   0.76135409841690      0.96374454212686      1.41997977919863
| 70>   H   1.13718256963860     -0.97719924843132     -2.01210061392459
| 71>   H   3.15495111602264     -2.48117438103309     -3.60771667232446
| 72>   H   1.50968542388967     -3.55026686902445      0.33550320881394
| 73>   H   4.53162105077540     -2.10544000607510     -1.43040989153183
| 74>   H   4.91334564573588     -3.74431974276701     -0.89740660931213
| 75>   H   -1.21422356814811      2.38381626705741     -0.11304445460512
| 76>   H   0.50417009967612      2.70409242790732     -0.06471563552158
| 77>   C   -3.72567802553649     -0.69308984377898     -1.43826280249953
| 78>   H   -4.80019132037357     -0.63774534596366     -1.58457046794979
| 79>   H   -3.35509368417493     -1.63179258822744     -1.83320218618314
| 80>   H   -3.26449326191491      0.11842603844984     -1.99098574312194
| 81>   N   -1.07678336297608     -5.14524000886982      2.43864009796537
| 82>   C   0.11175784456188     -5.02831526915982      2.96667510746963
| 83>   N   0.64934008316043     -6.23176632933041      3.18338120457625
| 84>   C   -0.24424457578271     -7.17781896813145      2.76642988944988
| 85>   C   -1.31299379990128     -6.48767768692063      2.30485439576997
| 86>   H   -2.22140640980896     -6.86225655116150      1.88326675004361
| 87>   H   1.54978270896287     -6.40439286235878      3.58062577378126
| 88>   H   -0.04174277149196     -8.22447259978175      2.83500909616003
| 89>   H   0.59145446050662     -4.09834239696851      3.18993237153401
| 90>   N   -4.07218911587619     -4.00446383609726      2.13337181564804
| 91>   C   -5.12648064514140     -3.42398310337642      1.62148390029542
| 92>   N   -6.24035347737312     -4.00979796867941      2.06409374240478
| 93>   C   -4.53295592766240     -5.00883628376330      2.94510266199735
| 94>   C   -5.88473072997316     -5.02269876711100      2.91096533554071
| 95>   H   -5.08974990338605     -2.58232963626915      0.95889937398543
| 96>   H   -3.86778273705451     -5.64048033664344      3.49348991267700
| 97>   H   -6.60744350326426     -5.64102958113602      3.39713154624745
| 98>   H   -7.17242574966599     -3.74728974588105      1.81703535427224
| 99> *
|100>
|101> %eprnmr
|102>     gtensor true
|103>     nuclei = all H {aiso, adip, rho} # this compute the hyperfine coupling for all hydrogens.
|104>     nuclei = all C {aiso, adip, rho}
|105>     nuclei = all Fe {aiso, adip, rho}
|106> end
|107>
|108> %plots
|109>   dim1 150
|110>   dim2 150
|111>   dim3 150
|112>   min1 -20.0
|113>   max1 20.0
|114>   min2 -20.0
|115>   max2 20.0
|116>   min3 -20.0
|117>   max3 20.0
|118>   Format Gaussian_Cube
|119>   MO("5-dAdo_2minusBHandHLYP_sbdft_aab_MO144.cube", 144, 1);
|120>   MO("5-dAdo_2minusBHandHLYP_sbdft_aab_MO143.cube", 143, 1);
|121>   MO("5-dAdo_2minusBHandHLYP_sbdft_aab_MO142.cube", 142, 1);
|122>   MO("5-dAdo_2minusBHandHLYP_sbdft_aab_MO141.cube", 141, 1);
|123>   MO("5-dAdo_2minusBHandHLYP_sbdft_aab_MO140.cube", 140, 1);
|124>   MO("5-dAdo_2minusBHandHLYP_sbdft_aab_MO139.cube", 139, 1);
|125>   MO("5-dAdo_2minusBHandHLYP_sbdft_aab_MO138.cube", 138, 1);
|126>   MO("5-dAdo_2minusBHandHLYP_sbdft_aab_MO137.cube", 137, 1);
|127>   MO("5-dAdo_2minusBHandHLYP_sbdft_aab_MO136.cube", 136, 1);
|128>   MO("5-dAdo_2minusBHandHLYP_sbdft_aab_MO135.cube", 135, 1);
|129>   MO("5-dAdo_2minusBHandHLYP_sbdft_aab_MO134.cube", 134, 1);
|130>   MO("5-dAdo_2minusBHandHLYP_sbdft_aab_MO133.cube", 133, 1);
|131>   MO("5-dAdo_2minusBHandHLYP_sbdft_aab_MO132.cube", 132, 1);
|132>   MO("5-dAdo_2minusBHandHLYP_sbdft_aab_MO131.cube", 131, 1);
|133>   MO("5-dAdo_2minusBHandHLYP_sbdft_aab_MO130.cube", 130, 1);
|134> End
|135>
|136>                          ****END OF INPUT****
 Total Charge           Charge          ....   -2
 Multiplicity           Mult            ....   10
 Number of Electrons    NEL             ....  285
FINAL SINGLE POINT ENERGY     -4919.804551514605
FINAL SINGLE POINT ENERGY     -4919.813756382597
FINAL SINGLE POINT ENERGY     -4919.816660579017
FINAL SINGLE POINT ENERGY     -4919.818035111109
FINAL SINGLE POINT ENERGY     -4919.819088709492
FINAL SINGLE POINT ENERGY     -4919.819150061767
FINAL SINGLE POINT ENERGY     -4919.819909535338
FINAL SINGLE POINT ENERGY     -4919.820347987970
FINAL SINGLE POINT ENERGY     -4919.820477656919
FINAL SINGLE POINT ENERGY     -4919.820756640434
FINAL SINGLE POINT ENERGY     -4919.821953552008
FINAL SINGLE POINT ENERGY     -4919.821934398742
FINAL SINGLE POINT ENERGY     -4919.821881211909
FINAL SINGLE POINT ENERGY     -4919.822036830694
FINAL SINGLE POINT ENERGY     -4919.822035734346
FINAL SINGLE POINT ENERGY     -4919.821900282016
FINAL SINGLE POINT ENERGY     -4919.821891733852
FINAL SINGLE POINT ENERGY     -4919.821890684813
FINAL SINGLE POINT ENERGY     -4919.821861674430
                    ***********************HURRAY********************

CARTESIAN COORDINATES (ANGSTROEM)
---------------------------------
  Fe    -0.697475   -1.248465    0.406832
  Fe    -1.840254   -3.721514    1.758698
  C      1.489689   -1.391813    0.446146
  C      2.180926   -2.514248   -0.251502
  H      1.860074   -0.443182    0.062784
  H      1.706867   -1.442178    1.509006
  S     -1.052460   -1.771800    2.802988
  S     -3.241477   -0.322782    0.251779
  S     -1.304574   -3.418274   -0.500276
  N     -0.365566    0.917216    0.948108
  C     -0.510687    1.795801   -0.210028
  C     -0.338955    1.047137   -1.528380
  O     -0.406213   -0.221666   -1.486821
  O      3.644569   -2.457641   -0.074057
  C      1.980358   -2.614051   -1.763723
  O      1.905641   -1.362810   -2.420477
  C      3.267577   -3.281269   -2.236244
  O      3.533849   -3.095965   -3.607313
  C      4.306000   -2.652403   -1.308002
  O     -0.162419    1.712379   -2.556519
  H      3.207562   -4.351932   -2.060243
  H      1.095067   -3.203122   -1.979212
  H     -1.054641    1.125905    1.650230
  H      0.543854    1.015960    1.368851
  H      1.075942   -0.938083   -2.154020
  H      3.216148   -2.218426   -3.823852
  H      1.863300   -3.464374    0.177749
  H      4.637301   -1.699069   -1.726600
  H      5.176096   -3.289272   -1.160957
  H     -1.516822    2.203426   -0.223156
  H      0.188280    2.627447   -0.192570
  C     -3.629665   -0.379060   -1.523436
  H     -4.702079   -0.295071   -1.689028
  H     -3.287003   -1.326280   -1.932249
  H     -3.138666    0.422588   -2.069594
  N     -1.067770   -5.538414    2.669238
  C     -0.036373   -5.543379    3.488747
  N      0.278374   -6.797144    3.853862
  C     -0.595015   -7.654636    3.233269
  C     -1.427471   -6.857429    2.500109
  H     -2.242648   -7.147877    1.865380
  H      1.024229   -7.053951    4.472304
  H     -0.548521   -8.717756    3.361892
  H      0.491195   -4.672710    3.829261
  N     -3.919266   -4.128899    2.178288
  C     -4.835088   -3.272069    1.767621
  N     -6.058665   -3.668032    2.154183
  C     -4.593457   -5.117030    2.862112
  C     -5.931101   -4.842869    2.855037
  H     -4.624635   -2.369675    1.212598
  H     -4.084620   -5.946766    3.313256
  H     -6.772593   -5.360066    3.271450
  H     -6.914138   -3.181416    1.965147

 Multiplicity           Mult            ....   10
 Number of Electrons    NEL             ....  285
 Basis Dimension        Dim             ....  830

ORBITAL ENERGIES
----------------
                 SPIN UP ORBITALS
  NO   OCC          E(Eh)            E(eV)
   0   1.0000    -258.149648     -7024.6090
   1   1.0000    -258.031033     -7021.3814
   2   1.0000     -89.929905     -2447.1171
   3   1.0000     -89.909545     -2446.5631
   4   1.0000     -89.909352     -2446.5579
   5   1.0000     -30.861292      -839.7784
   6   1.0000     -30.720295      -835.9417
   7   1.0000     -26.575618      -723.1593
   8   1.0000     -26.574465      -723.1280
   9   1.0000     -26.569795      -723.0009
  10   1.0000     -26.454651      -719.8677
  11   1.0000     -26.425767      -719.0817
  12   1.0000     -26.423561      -719.0217
  13   1.0000     -19.677418      -535.4498
  14   1.0000     -19.659475      -534.9615
  15   1.0000     -19.657353      -534.9038
  16   1.0000     -19.641434      -534.4706
  17   1.0000     -19.630666      -534.1776
  18   1.0000     -14.869713      -404.6254
  19   1.0000     -14.865314      -404.5058
  20   1.0000     -14.817249      -403.1979
  21   1.0000     -14.811716      -403.0473
  22   1.0000     -14.794246      -402.5719
  23   1.0000     -10.690818      -290.9120
  24   1.0000     -10.661193      -290.1058
  25   1.0000     -10.651769      -289.8494
  26   1.0000     -10.629042      -289.2309
  27   1.0000     -10.625340      -289.1302
  28   1.0000     -10.623223      -289.0726
  29   1.0000     -10.617005      -288.9034
  30   1.0000     -10.613943      -288.8201
  31   1.0000     -10.610426      -288.7244
  32   1.0000     -10.609490      -288.6989
  33   1.0000     -10.601663      -288.4859
  34   1.0000     -10.600342      -288.4500
  35   1.0000     -10.556969      -287.2697
  36   1.0000     -10.497772      -285.6589
  37   1.0000      -8.212523      -223.4741
  38   1.0000      -8.193382      -222.9532
  39   1.0000      -8.192865      -222.9392
  40   1.0000      -6.070212      -165.1789
  41   1.0000      -6.066694      -165.0831
  42   1.0000      -6.065058      -165.0386
  43   1.0000      -6.049527      -164.6160
  44   1.0000      -6.049137      -164.6054
  45   1.0000      -6.048191      -164.5796
  46   1.0000      -6.048078      -164.5766
  47   1.0000      -6.047670      -164.5655
  48   1.0000      -6.047457      -164.5597
  49   1.0000      -3.915888      -106.5567
  50   1.0000      -3.781103      -102.8891
  51   1.0000      -2.633866       -71.6711
  52   1.0000      -2.631613       -71.6098
  53   1.0000      -2.620446       -71.3060
  54   1.0000      -2.537757       -69.0559
  55   1.0000      -2.477008       -67.4028
  56   1.0000      -2.473756       -67.3143
  57   1.0000      -1.177575       -32.0434
  58   1.0000      -1.166764       -31.7492
  59   1.0000      -1.159964       -31.5642
  60   1.0000      -1.154725       -31.4217
  61   1.0000      -1.136467       -30.9248
  62   1.0000      -1.124049       -30.5869
  63   1.0000      -1.080028       -29.3891
  64   1.0000      -1.007014       -27.4022
  65   1.0000      -1.003351       -27.3026
  66   1.0000      -0.997731       -27.1496
  67   1.0000      -0.861004       -23.4291
  68   1.0000      -0.856395       -23.3037
  69   1.0000      -0.850980       -23.1564
  70   1.0000      -0.834679       -22.7128
  71   1.0000      -0.799530       -21.7563
  72   1.0000      -0.783515       -21.3205
  73   1.0000      -0.730846       -19.8873
  74   1.0000      -0.711646       -19.3649
  75   1.0000      -0.704474       -19.1697
  76   1.0000      -0.687847       -18.7173
  77   1.0000      -0.682580       -18.5740
  78   1.0000      -0.674757       -18.3611
  79   1.0000      -0.671093       -18.2614
  80   1.0000      -0.664320       -18.0771
  81   1.0000      -0.649714       -17.6796
  82   1.0000      -0.644994       -17.5512
  83   1.0000      -0.634029       -17.2528
  84   1.0000      -0.632724       -17.2173
  85   1.0000      -0.606301       -16.4983
  86   1.0000      -0.593218       -16.1423
  87   1.0000      -0.580210       -15.7883
  88   1.0000      -0.559449       -15.2234
  89   1.0000      -0.550489       -14.9796
  90   1.0000      -0.543911       -14.8006
  91   1.0000      -0.539692       -14.6858
  92   1.0000      -0.528672       -14.3859
  93   1.0000      -0.526929       -14.3385
  94   1.0000      -0.523423       -14.2431
  95   1.0000      -0.522523       -14.2186
  96   1.0000      -0.517231       -14.0746
  97   1.0000      -0.516058       -14.0427
  98   1.0000      -0.510584       -13.8937
  99   1.0000      -0.509887       -13.8747
 100   1.0000      -0.509569       -13.8661
 101   1.0000      -0.509129       -13.8541
 102   1.0000      -0.507598       -13.8125
 103   1.0000      -0.505432       -13.7535
 104   1.0000      -0.489774       -13.3274
 105   1.0000      -0.486130       -13.2283
 106   1.0000      -0.483129       -13.1466
 107   1.0000      -0.482315       -13.1245
 108   1.0000      -0.478171       -13.0117
 109   1.0000      -0.466244       -12.6871
 110   1.0000      -0.452084       -12.3018
 111   1.0000      -0.449821       -12.2403
 112   1.0000      -0.445718       -12.1286
 113   1.0000      -0.440315       -11.9816
 114   1.0000      -0.436820       -11.8865
 115   1.0000      -0.429256       -11.6807
 116   1.0000      -0.426744       -11.6123
 117   1.0000      -0.424685       -11.5563
 118   1.0000      -0.414179       -11.2704
 119   1.0000      -0.412844       -11.2340
 120   1.0000      -0.402930       -10.9643
 121   1.0000      -0.399375       -10.8676
 122   1.0000      -0.381427       -10.3791
 123   1.0000      -0.368383       -10.0242
 124   1.0000      -0.367110        -9.9896
 125   1.0000      -0.361658        -9.8412
 126   1.0000      -0.347368        -9.4524
 127   1.0000      -0.344511        -9.3746
 128   1.0000      -0.339780        -9.2459
 129   1.0000      -0.337602        -9.1866
 130   1.0000      -0.330447        -8.9919
 131   1.0000      -0.327847        -8.9212
 132   1.0000      -0.324889        -8.8407
 133   1.0000      -0.313549        -8.5321
 134   1.0000      -0.303498        -8.2586
 135   1.0000      -0.300352        -8.1730
 136   1.0000      -0.287877        -7.8335
 137   1.0000      -0.280899        -7.6437
 138   1.0000      -0.278130        -7.5683
 139   1.0000      -0.250434        -6.8147
 140   1.0000      -0.239343        -6.5129
 141   1.0000      -0.229355        -6.2411
 142   1.0000      -0.212905        -5.7934
 143   1.0000      -0.207517        -5.6468
 144   1.0000      -0.202103        -5.4995
 145   1.0000      -0.196961        -5.3596
 146   1.0000      -0.190432        -5.1819
 147   0.0000       0.043942         1.1957
 148   0.0000       0.051660         1.4057
 149   0.0000       0.056700         1.5429
 150   0.0000       0.061041         1.6610
 151   0.0000       0.065390         1.7794

                 SPIN DOWN ORBITALS
  NO   OCC          E(Eh)            E(eV)
   0   1.0000    -258.149336     -7024.6006
   1   1.0000    -258.030769     -7021.3742
   2   1.0000     -89.929111     -2447.0955
   3   1.0000     -89.907575     -2446.5095
   4   1.0000     -89.907435     -2446.5057
   5   1.0000     -30.750570      -836.7655
   6   1.0000     -30.629770      -833.4784
   7   1.0000     -26.474091      -720.3966
   8   1.0000     -26.473624      -720.3839
   9   1.0000     -26.472511      -720.3536
  10   1.0000     -26.358964      -717.2639
  11   1.0000     -26.350926      -717.0452
  12   1.0000     -26.349363      -717.0026
  13   1.0000     -19.677415      -535.4497
  14   1.0000     -19.659467      -534.9613
  15   1.0000     -19.656668      -534.8851
  16   1.0000     -19.638871      -534.4009
  17   1.0000     -19.630492      -534.1729
  18   1.0000     -14.869664      -404.6241
  19   1.0000     -14.865244      -404.5039
  20   1.0000     -14.816242      -403.1704
  21   1.0000     -14.810770      -403.0215
  22   1.0000     -14.791816      -402.5058
  23   1.0000     -10.690795      -290.9113
  24   1.0000     -10.661143      -290.1045
  25   1.0000     -10.651613      -289.8451
  26   1.0000     -10.629009      -289.2300
  27   1.0000     -10.625328      -289.1299
  28   1.0000     -10.623230      -289.0728
  29   1.0000     -10.616988      -288.9029
  30   1.0000     -10.613903      -288.8190
  31   1.0000     -10.610385      -288.7233
  32   1.0000     -10.609438      -288.6975
  33   1.0000     -10.601728      -288.4877
  34   1.0000     -10.600362      -288.4505
  35   1.0000     -10.557009      -287.2708
  36   1.0000     -10.492762      -285.5226
  37   1.0000      -8.211740      -223.4528
  38   1.0000      -8.191506      -222.9022
  39   1.0000      -8.191033      -222.8893
  40   1.0000      -6.069648      -165.1635
  41   1.0000      -6.064500      -165.0234
  42   1.0000      -6.064382      -165.0202
  43   1.0000      -6.046390      -164.5306
  44   1.0000      -6.045971      -164.5192
  45   1.0000      -6.045663      -164.5109
  46   1.0000      -6.045059      -164.4944
  47   1.0000      -6.045011      -164.4931
  48   1.0000      -6.044752      -164.4861
  49   1.0000      -3.635042       -98.9145
  50   1.0000      -3.544117       -96.4403
  51   1.0000      -2.310049       -62.8596
  52   1.0000      -2.309871       -62.8548
  53   1.0000      -2.308455       -62.8163
  54   1.0000      -2.231195       -60.7139
  55   1.0000      -2.230484       -60.6946
  56   1.0000      -2.219061       -60.3837
  57   1.0000      -1.175157       -31.9777
  58   1.0000      -1.166434       -31.7403
  59   1.0000      -1.159417       -31.5493
  60   1.0000      -1.154133       -31.4055
  61   1.0000      -1.135576       -30.9006
  62   1.0000      -1.123665       -30.5765
  63   1.0000      -1.076855       -29.3027
  64   1.0000      -1.002952       -27.2917
  65   1.0000      -1.002303       -27.2741
  66   1.0000      -0.996713       -27.1219
  67   1.0000      -0.860754       -23.4223
  68   1.0000      -0.856079       -23.2951
  69   1.0000      -0.850299       -23.1378
  70   1.0000      -0.831894       -22.6370
  71   1.0000      -0.797982       -21.7142
  72   1.0000      -0.782260       -21.2864
  73   1.0000      -0.724826       -19.7235
  74   1.0000      -0.710883       -19.3441
  75   1.0000      -0.703637       -19.1469
  76   1.0000      -0.687130       -18.6978
  77   1.0000      -0.681739       -18.5511
  78   1.0000      -0.671498       -18.2724
  79   1.0000      -0.660245       -17.9662
  80   1.0000      -0.649572       -17.6758
  81   1.0000      -0.645230       -17.5576
  82   1.0000      -0.643563       -17.5122
  83   1.0000      -0.629892       -17.1402
  84   1.0000      -0.628688       -17.1075
  85   1.0000      -0.600139       -16.3306
  86   1.0000      -0.589910       -16.0523
  87   1.0000      -0.575796       -15.6682
  88   1.0000      -0.556060       -15.1312
  89   1.0000      -0.540850       -14.7173
  90   1.0000      -0.533021       -14.5042
  91   1.0000      -0.524047       -14.2600
  92   1.0000      -0.521505       -14.1909
  93   1.0000      -0.514487       -13.9999
  94   1.0000      -0.509920       -13.8756
  95   1.0000      -0.509597       -13.8668
  96   1.0000      -0.509116       -13.8538
  97   1.0000      -0.507769       -13.8171
  98   1.0000      -0.505212       -13.7475
  99   1.0000      -0.489236       -13.3128
 100   1.0000      -0.487157       -13.2562
 101   1.0000      -0.482604       -13.1323
 102   1.0000      -0.481711       -13.1080
 103   1.0000      -0.477181       -12.9848
 104   1.0000      -0.467050       -12.7091
 105   1.0000      -0.450229       -12.2513
 106   1.0000      -0.440288       -11.9808
 107   1.0000      -0.436699       -11.8832
 108   1.0000      -0.429265       -11.6809
 109   1.0000      -0.413658       -11.2562
 110   1.0000      -0.412743       -11.2313
 111   1.0000      -0.412194       -11.2164
 112   1.0000      -0.402891       -10.9632
 113   1.0000      -0.389071       -10.5871
 114   1.0000      -0.380516       -10.3544
 115   1.0000      -0.367095        -9.9892
 116   1.0000      -0.362923        -9.8756
 117   1.0000      -0.352951        -9.6043
 118   1.0000      -0.348097        -9.4722
 119   1.0000      -0.340480        -9.2649
 120   1.0000      -0.338544        -9.2122
 121   1.0000      -0.328892        -8.9496
 122   1.0000      -0.323964        -8.8155
 123   1.0000      -0.313386        -8.5277
 124   1.0000      -0.304942        -8.2979
 125   1.0000      -0.299651        -8.1539
 126   1.0000      -0.293457        -7.9854
 127   1.0000      -0.282202        -7.6791
 128   1.0000      -0.277991        -7.5645
 129   1.0000      -0.265227        -7.2172
 130   1.0000      -0.253328        -6.8934
 131   1.0000      -0.244269        -6.6469
 132   1.0000      -0.240088        -6.5331
 133   1.0000      -0.235168        -6.3993
 134   1.0000      -0.230495        -6.2721
 135   1.0000      -0.210046        -5.7156
 136   1.0000      -0.205710        -5.5977
 137   1.0000      -0.191036        -5.1984
 138   0.0000       0.024853         0.6763
 139   0.0000       0.035962         0.9786
 140   0.0000       0.040870         1.1121
 141   0.0000       0.041142         1.1195
 142   0.0000       0.043471         1.1829

MULLIKEN ATOMIC CHARGES AND SPIN POPULATIONS
--------------------------------------------
   0 Fe:    1.316618    4.313444
   1 Fe:    0.561004    3.877778
   2 C :   -0.696085    0.231398
   3 C :    0.103448   -0.005618
   4 H :    0.078441   -0.003927
   5 H :    0.073656   -0.002313
   6 S :   -1.120835    0.191412
   7 S :   -0.699240    0.069905
   8 S :   -1.107285    0.197387
   9 N :   -0.499228    0.050017
  10 C :   -0.225233    0.000482
  11 C :    0.215917   -0.000040
  12 O :   -0.458259    0.036725
  13 O :   -0.411912    0.007125
  14 C :   -0.004191    0.004586
  15 O :   -0.540195    0.000027
  16 C :   -0.012485   -0.000996
  17 O :   -0.503125    0.000055
  18 C :   -0.108528    0.002644
  19 O :   -0.503928    0.005141
  20 H :    0.137308    0.000037
  21 H :    0.139144    0.000417
  22 H :    0.292761   -0.001160
  23 H :    0.280227   -0.001748
  24 H :    0.338458    0.000439
  25 H :    0.315380    0.000010
  26 H :    0.098042    0.000873
  27 H :    0.121513   -0.000135
  28 H :    0.122078    0.000808
  29 H :    0.173171    0.000371
  30 H :    0.153961    0.001152
  31 C :   -0.410755   -0.001340
  32 H :    0.110003    0.002155
  33 H :    0.154510    0.001219
  34 H :    0.137948    0.000505
  35 N :   -0.075050   -0.000360
  36 C :   -0.133398    0.002315
  37 N :   -0.024248    0.000501
  38 C :   -0.219737    0.001442
  39 C :   -0.136651    0.001396
  40 H :    0.154283    0.000470
  41 H :    0.299491    0.000656
  42 H :    0.172609    0.000191
  43 H :    0.173079    0.001246
  44 N :   -0.083060   -0.007032
  45 C :   -0.156753    0.015173
  46 N :   -0.010960    0.000331
  47 C :   -0.124938    0.002797
  48 C :   -0.250100    0.000469
  49 H :    0.179710    0.000592
  50 H :    0.148650    0.000230
  51 H :    0.169370    0.000144
  52 H :    0.295403    0.000605
Sum of atomic charges         :   -2.0000000

LOEWDIN ATOMIC CHARGES AND SPIN POPULATIONS
-------------------------------------------
   0 Fe:    0.532466    4.296352
   1 Fe:    0.236514    3.805751
   2 C :   -1.176276    0.189202
   3 C :    0.157267    0.005457
   4 H :    0.152813    0.002645
   5 H :    0.153952    0.002346
   6 S :   -0.718852    0.215715
   7 S :   -0.452749    0.069343
   8 S :   -0.675677    0.225942
   9 N :    0.027552    0.055217
  10 C :   -0.006827    0.000905
  11 C :   -0.139327    0.002516
  12 O :   -0.270853    0.048670
  13 O :   -0.173043    0.013063
  14 C :   -0.018164    0.001534
  15 O :   -0.116581    0.000180
  16 C :   -0.039720    0.000013
  17 O :   -0.114323    0.000092
  18 C :    0.017996    0.001792
  19 O :   -0.338146    0.004092
  20 H :    0.047501    0.000003
  21 H :    0.046732    0.000337
  22 H :    0.077529    0.001325
  23 H :    0.080812    0.000745
  24 H :    0.074622    0.000012
  25 H :    0.079734   -0.000005
  26 H :    0.062599   -0.000096
  27 H :    0.029133   -0.000089
  28 H :    0.026005    0.000607
  29 H :    0.057763    0.000307
  30 H :    0.043567    0.000919
  31 C :   -0.143989    0.000901
  32 H :    0.008372    0.002002
  33 H :    0.022104    0.001091
  34 H :    0.012881    0.000218
  35 N :   -0.093312    0.016889
  36 C :    0.000521    0.002884
  37 N :    0.162351    0.001050
  38 C :   -0.047241    0.001135
  39 C :   -0.071172    0.001344
  40 H :    0.052206    0.000250
  41 H :    0.110438    0.000291
  42 H :    0.055226    0.000159
  43 H :    0.063092    0.000333
  44 N :   -0.101128    0.013174
  45 C :   -0.005109    0.008196
  46 N :    0.158616    0.001749
  47 C :   -0.070050    0.002279
  48 C :   -0.053542    0.000381
  49 H :    0.063489    0.000189
  50 H :    0.049668    0.000211
  51 H :    0.053736    0.000126
  52 H :    0.108825    0.000256

  Mayer bond orders larger than 0.100000
B(  0-Fe,  2-C ) :   0.4826 B(  0-Fe,  6-S ) :   0.6431 B(  0-Fe,  7-S ) :   0.4618
B(  0-Fe,  8-S ) :   0.5019 B(  0-Fe,  9-N ) :   0.3282 B(  0-Fe, 12-O ) :   0.2300
B(  1-Fe,  6-S ) :   0.8312 B(  1-Fe,  8-S ) :   1.0027 B(  1-Fe, 35-N ) :   0.3237
B(  1-Fe, 44-N ) :   0.3078 B(  2-C ,  3-C ) :   1.0341 B(  2-C ,  4-H ) :   1.0039
B(  2-C ,  5-H ) :   0.9700 B(  3-C , 13-O ) :   0.8234 B(  3-C , 14-C ) :   0.9183
B(  3-C , 26-H ) :   0.9748 B(  7-S , 31-C ) :   0.9837 B(  9-N , 10-C ) :   0.9335
B(  9-N , 22-H ) :   0.9339 B(  9-N , 23-H ) :   0.9359 B( 10-C , 11-C ) :   0.8901
B( 10-C , 29-H ) :   0.9703 B( 10-C , 30-H ) :   0.9893 B( 11-C , 12-O ) :   1.4004
B( 11-C , 19-O ) :   1.7339 B( 13-O , 18-C ) :   0.9916 B( 14-C , 15-O ) :   0.9522
B( 14-C , 16-C ) :   0.9969 B( 14-C , 21-H ) :   0.9491 B( 15-O , 24-H ) :   0.8366
B( 16-C , 17-O ) :   0.9701 B( 16-C , 18-C ) :   0.9461 B( 16-C , 20-H ) :   0.9749
B( 17-O , 25-H ) :   0.8919 B( 18-C , 27-H ) :   0.9607 B( 18-C , 28-H ) :   0.9673
B( 31-C , 32-H ) :   0.9794 B( 31-C , 33-H ) :   0.9591 B( 31-C , 34-H ) :   0.9627
B( 35-N , 36-C ) :   1.5071 B( 35-N , 39-C ) :   1.2526 B( 36-C , 37-N ) :   1.3675
B( 36-C , 43-H ) :   0.9478 B( 37-N , 38-C ) :   1.2476 B( 37-N , 41-H ) :   0.8894
B( 38-C , 39-C ) :   1.6332 B( 38-C , 42-H ) :   0.9631 B( 39-C , 40-H ) :   0.9715
B( 44-N , 45-C ) :   1.4981 B( 44-N , 47-C ) :   1.2493 B( 45-C , 46-N ) :   1.3649
B( 45-C , 49-H ) :   0.9389 B( 46-N , 48-C ) :   1.2459 B( 46-N , 52-H ) :   0.8912
B( 47-C , 48-C ) :   1.6402 B( 47-C , 50-H ) :   0.9743 B( 48-C , 51-H ) :   0.9639

FINAL SINGLE POINT ENERGY     -4919.821857989955

DIPOLE MOMENT
-------------
                                X             Y             Z
Electronic contribution:    -12.90501      -8.31539      15.04151
Nuclear contribution   :     10.10462       0.56791      -8.23295
                        -----------------------------------------
Total Dipole Moment    :     -2.80039      -7.74748       6.80857
                        -----------------------------------------
Magnitude (a.u.)       :     10.68748
Magnitude (Debye)      :     27.16542

Rotational constants in cm-1:     0.004949     0.003058     0.002214
Rotational constants in MHz :   148.379469    91.680553    66.379021

                             ****ORCA TERMINATED NORMALLY****
TOTAL RUN TIME: 1 days 5 hours 20 minutes 14 seconds 567 msec
