                         Program Version 4.2.1 -  RELEASE  -
|  1> !UKS BHandHLYP EPR-II Grid7 veryTightSCF verySlowConv opt
|  2> #this is a BS-DFT calculation
|  3> %pal nprocs 32 end
|  4>
|  5> %maxcore 8000
|  6>
|  7> #BE SURE TO ADJUST THIS LINE BEFORE SUBMITTING IT WILL BE DIFFERENT FOR EACH JOB
|  8>
|  9> %cpcm
| 10>  epsilon 20
| 11> end
| 12>
| 13> %scf
| 14>   maxiter 3000
| 15>   DIISMaxEq 15
| 16>   directresetfreq 1
| 17>   #guessmode cmatrix
| 18> 	flipspin 2
| 19> 	finalms 4.5
| 20> end
| 21>
| 22> #aab conf.
| 23>
| 24> %basis
| 25> 	NewGTO Fe "CP(PPP)" end
| 26> 	NewGTO S "def2-TZVP" end
| 27> end
| 28>
| 29> %method
| 30> Z_solver DIIS
| 31> Z_MaxIter 128 # maximum number of CP-SCF iterations
| 32> Z_MaxDIIS 5 # for DIIS: maximum number of expansion vectors
| 33> Z_Shift 0.3 # for DIIS: level shift
| 34> Z_Tol 1e-6 # convergence tolerance on residual
| 35> End
| 36>
| 37> %method
| 38>  SpecialGridAtoms 26
| 39>  SpecialGridIntAcc 7
| 40> end
| 41>
| 42> # newGTO "EPR-III" end
| 43> #adjust charge and apply newGTO "EPR-III" end to the carbon radical and attached atoms. (atom 3)
| 44>
| 45> *xyz  -2 10
| 46>   Fe  -0.69602977667723     -1.13913623718869      0.44616924364473
| 47>   Fe  -2.17055912803038     -3.41852198519371      1.67220653079273
| 48>   C   2.23664903191099     -1.74687609882491      0.61951070025818 newGTO "EPR-III" end
| 49>   C   2.75201981783359     -2.98090267293789     -0.00941041366115
| 50>   H   2.76938010433757     -0.88540327457528      0.21845530663277
| 51>   H   2.40924731003685     -1.79003452680931      1.69071778695098
| 52>   S   -1.16727887129843     -1.61993807571143      2.75293697224908
| 53>   S   -3.24143706239809     -0.61338267314970      0.29576371218213
| 54>   S   -1.57268599667768     -3.16569930030696     -0.57041103078700
| 55>   N   -0.09428980570937      0.91391957052592      0.99190509635963
| 56>   C   -0.13489969382652      1.81607360535555     -0.14302960534369
| 57>   C   -0.02345867723637      1.04183624026946     -1.43787811163192
| 58>   O   -0.24120837536504     -0.19608715124843     -1.35220681483730
| 59>   O   4.18861395438470     -3.22694620149688      0.21706176716975
| 60>   C   2.58473669258071     -3.01632086756176     -1.53689867695495
| 61>   O   2.29093004563419     -1.76288538260727     -2.10761095539294
| 62>   C   3.95249948262675     -3.44051503466148     -2.05854914342176
| 63>   O   4.24493505357691     -2.95970053091329     -3.34349925519635
| 64>   C   4.87517160823422     -2.93371728480638     -0.96811395972361
| 65>   O   0.22862710689643      1.64787649767184     -2.47331625629295
| 66>   H   4.00717909211731     -4.52236797696834     -2.09499282660279
| 67>   H   1.80568443119729     -3.72000015573303     -1.80999219576969
| 68>   H   -0.73681648480844      1.20482497664828      1.70566490357164
| 69>   H   0.82371760322844      0.84377604722314      1.39343827526105
| 70>   H   1.59268817873087     -1.35309285980422     -1.58541655407960
| 71>   H   3.80595555420508     -2.11194860934846     -3.42583904239984
| 72>   H   2.26004864837217     -3.85214368001028      0.40946284193532
| 73>   H   5.03282899508132     -1.86037755326864     -1.09054217473360
| 74>   H   5.83962672592669     -3.42763106389391     -0.95704924540672
| 75>   H   -1.09539168315829      2.31763279860369     -0.16283725841504
| 76>   H   0.63543154299118      2.57671031416451     -0.10796413268674
| 77>   C   -3.66293485792810     -0.69032123046174     -1.46061406148560
| 78>   H   -4.71234302357544     -0.45364775427684     -1.60560587346782
| 79>   H   -3.46134455150945     -1.69077780514960     -1.82305754279652
| 80>   H   -3.07005208430403      0.00837525996677     -2.03997559937002
| 81>   N   -1.05645380199686     -5.11013730860514      2.43142456159522
| 82>   C   0.22734103143491     -4.92785580914549      2.59795870242254
| 83>   N   0.83423697845032     -6.08753924632180      2.85784578191695
| 84>   C   -0.11167689916824     -7.07450394991103      2.85547699757806
| 85>   C   -1.28284552841848     -6.45234842966059      2.58683061054589
| 86>   H   -2.25864514096321     -6.87805829790001      2.48881857472909
| 87>   H   1.81172162145307     -6.20796295867153      3.02769998077855
| 88>   H   0.13041207312283     -8.09818376728091      3.04133270160918
| 89>   H   0.72344238419931     -3.98196546183695      2.52571931153323
| 90>   N   -4.15266771426275     -3.97332542837952      2.14990946663957
| 91>   C   -5.18845215396331     -3.40567419624070      1.58659336725377
| 92>   N   -6.31773517755984     -3.96068664942712      2.02643662525091
| 93>   C   -4.64402234989752     -4.93654889809936      2.99354467812077
| 94>   C   -5.99414213232987     -4.93840046859986      2.92561383657734
| 95>   H   -5.13112563588582     -2.59634901371660      0.88724663250928
| 96>   H   -4.00063160932233     -5.54840542469344      3.58831772179635
| 97>   H   -6.73517205709661     -5.52732136651764      3.42044104381969
| 98>   H   -7.24069479519589     -3.70070264851276      1.74438699877313
| 99> *
|100>
|101> %eprnmr
|102>     gtensor true
|103>     nuclei = all H {aiso, adip, rho} # this compute the hyperfine coupling for all hydrogens.
|104>     nuclei = all C {aiso, adip, rho}
|105>     nuclei = all Fe {aiso, adip, rho}
|106> end
|107>
|108> %plots
|109>   dim1 150
|110>   dim2 150
|111>   dim3 150
|112>   min1 -20.0
|113>   max1 20.0
|114>   min2 -20.0
|115>   max2 20.0
|116>   min3 -20.0
|117>   max3 20.0
|118>   Format Gaussian_Cube
|119>   MO("5-dAdo_2minusBHandHLYP_3A_sbdft_aab_MO144.cube", 144, 1);
|120>   MO("5-dAdo_2minusBHandHLYP_3A_sbdft_aab_MO143.cube", 143, 1);
|121>   MO("5-dAdo_2minusBHandHLYP_3A_sbdft_aab_MO142.cube", 142, 1);
|122>   MO("5-dAdo_2minusBHandHLYP_3A_sbdft_aab_MO141.cube", 141, 1);
|123>   MO("5-dAdo_2minusBHandHLYP_3A_sbdft_aab_MO140.cube", 140, 1);
|124>   MO("5-dAdo_2minusBHandHLYP_3A_sbdft_aab_MO139.cube", 139, 1);
|125>   MO("5-dAdo_2minusBHandHLYP_3A_sbdft_aab_MO138.cube", 138, 1);
|126>   MO("5-dAdo_2minusBHandHLYP_3A_sbdft_aab_MO137.cube", 137, 1);
|127>   MO("5-dAdo_2minusBHandHLYP_3A_sbdft_aab_MO136.cube", 136, 1);
|128>   MO("5-dAdo_2minusBHandHLYP_3A_sbdft_aab_MO135.cube", 135, 1);
|129>   MO("5-dAdo_2minusBHandHLYP_3A_sbdft_aab_MO134.cube", 134, 1);
|130>   MO("5-dAdo_2minusBHandHLYP_3A_sbdft_aab_MO133.cube", 133, 1);
|131>   MO("5-dAdo_2minusBHandHLYP_3A_sbdft_aab_MO132.cube", 132, 1);
|132>   MO("5-dAdo_2minusBHandHLYP_3A_sbdft_aab_MO131.cube", 131, 1);
|133>   MO("5-dAdo_2minusBHandHLYP_3A_sbdft_aab_MO130.cube", 130, 1);
|134> End
|135>
|136>                          ****END OF INPUT****
 Total Charge           Charge          ....   -2
 Multiplicity           Mult            ....   10
 Number of Electrons    NEL             ....  285
FINAL SINGLE POINT ENERGY     -4919.771321454868
FINAL SINGLE POINT ENERGY     -4919.790056976994
FINAL SINGLE POINT ENERGY     -4919.801090032975
FINAL SINGLE POINT ENERGY     -4919.807262585537
FINAL SINGLE POINT ENERGY     -4919.811535650674
FINAL SINGLE POINT ENERGY     -4919.813299826419
FINAL SINGLE POINT ENERGY     -4919.814544755131
FINAL SINGLE POINT ENERGY     -4919.815773168372
FINAL SINGLE POINT ENERGY     -4919.816736266521
FINAL SINGLE POINT ENERGY     -4919.817425937332
FINAL SINGLE POINT ENERGY     -4919.821967207188
FINAL SINGLE POINT ENERGY     -4919.822125560025
FINAL SINGLE POINT ENERGY     -4919.822140147478
FINAL SINGLE POINT ENERGY     -4919.822112389199
FINAL SINGLE POINT ENERGY     -4919.822054624825
FINAL SINGLE POINT ENERGY     -4919.822041484473
FINAL SINGLE POINT ENERGY     -4919.822101365169
FINAL SINGLE POINT ENERGY     -4919.822073525051
FINAL SINGLE POINT ENERGY     -4919.822079884982
                    ***********************HURRAY********************

CARTESIAN COORDINATES (ANGSTROEM)
---------------------------------
  Fe    -0.435647   -1.283443    0.399578
  Fe    -1.612888   -3.750264    1.735197
  C      1.749305   -1.417652    0.504116
  C      2.465619   -2.539516   -0.168839
  H      2.125952   -0.469219    0.126858
  H      1.935764   -1.461746    1.573085
  S     -0.859862   -1.794590    2.790626
  S     -2.981412   -0.363520    0.181004
  S     -1.010515   -3.456940   -0.510699
  N     -0.126964    0.886206    0.942617
  C     -0.247858    1.758924   -0.222273
  C     -0.024840    1.007175   -1.531097
  O     -0.092746   -0.261561   -1.487392
  O      3.923742   -2.470941    0.045724
  C      2.305664   -2.649027   -1.684902
  O      2.249203   -1.401603   -2.351133
  C      3.605192   -3.319168   -2.117045
  O      3.907771   -3.146427   -3.482018
  C      4.618366   -2.681203   -1.167409
  O      0.189362    1.668869   -2.554217
  H      3.541073   -4.388150   -1.933038
  H      1.426362   -3.239124   -1.920713
  H     -0.836987    1.089863    1.625099
  H      0.769998    0.992874    1.387567
  H      1.411389   -0.976273   -2.112637
  H      3.598191   -2.270208   -3.714611
  H      2.144146   -3.489907    0.257164
  H      4.962508   -1.733139   -1.587531
  H      5.483324   -3.317417   -0.989518
  H     -1.259269    2.151293   -0.268348
  H      0.438013    2.600775   -0.186309
  C     -3.310383   -0.354470   -1.607048
  H     -4.377717   -0.277539   -1.804797
  H     -2.942628   -1.279810   -2.043337
  H     -2.813779    0.474144   -2.106196
  N     -0.853201   -5.559746    2.671010
  C      0.158420   -5.550058    3.514922
  N      0.474364   -6.798416    3.896866
  C     -0.376870   -7.667667    3.261841
  C     -1.197980   -6.882775    2.503130
  H     -1.994961   -7.184643    1.850864
  H      1.207680   -7.044568    4.534308
  H     -0.324551   -8.729393    3.399450
  H      0.669552   -4.671959    3.861446
  N     -3.700611   -4.166562    2.097850
  C     -4.613718   -3.326735    1.647603
  N     -5.843768   -3.733533    2.000598
  C     -4.383510   -5.154641    2.772938
  C     -5.723601   -4.898010    2.720069
  H     -4.397470   -2.428209    1.088966
  H     -3.878713   -5.972170    3.250161
  H     -6.571297   -5.420781    3.116469
  H     -6.699083   -3.260724    1.778062

 Multiplicity           Mult            ....   10
 Number of Electrons    NEL             ....  285
 Basis Dimension        Dim             ....  830

ORBITAL ENERGIES
----------------
                 SPIN UP ORBITALS
  NO   OCC          E(Eh)            E(eV)
   0   1.0000    -258.149768     -7024.6123
   1   1.0000    -258.031200     -7021.3859
   2   1.0000     -89.930142     -2447.1236
   3   1.0000     -89.909753     -2446.5688
   4   1.0000     -89.909445     -2446.5604
   5   1.0000     -30.861386      -839.7810
   6   1.0000     -30.720458      -835.9462
   7   1.0000     -26.575746      -723.1628
   8   1.0000     -26.574532      -723.1298
   9   1.0000     -26.569893      -723.0036
  10   1.0000     -26.454821      -719.8723
  11   1.0000     -26.425920      -719.0859
  12   1.0000     -26.423729      -719.0262
  13   1.0000     -19.677483      -535.4515
  14   1.0000     -19.659577      -534.9643
  15   1.0000     -19.657408      -534.9053
  16   1.0000     -19.641671      -534.4770
  17   1.0000     -19.630849      -534.1826
  18   1.0000     -14.869697      -404.6250
  19   1.0000     -14.865514      -404.5112
  20   1.0000     -14.817210      -403.1968
  21   1.0000     -14.811957      -403.0539
  22   1.0000     -14.794089      -402.5676
  23   1.0000     -10.690929      -290.9150
  24   1.0000     -10.661145      -290.1045
  25   1.0000     -10.652135      -289.8593
  26   1.0000     -10.629016      -289.2302
  27   1.0000     -10.625480      -289.1340
  28   1.0000     -10.623254      -289.0734
  29   1.0000     -10.616992      -288.9030
  30   1.0000     -10.614086      -288.8240
  31   1.0000     -10.610462      -288.7253
  32   1.0000     -10.609483      -288.6987
  33   1.0000     -10.601684      -288.4865
  34   1.0000     -10.600485      -288.4539
  35   1.0000     -10.557549      -287.2855
  36   1.0000     -10.497980      -285.6646
  37   1.0000      -8.212736      -223.4799
  38   1.0000      -8.193590      -222.9589
  39   1.0000      -8.192948      -222.9415
  40   1.0000      -6.070434      -165.1849
  41   1.0000      -6.066889      -165.0884
  42   1.0000      -6.065267      -165.0443
  43   1.0000      -6.049730      -164.6215
  44   1.0000      -6.049224      -164.6078
  45   1.0000      -6.048406      -164.5855
  46   1.0000      -6.048286      -164.5822
  47   1.0000      -6.047747      -164.5676
  48   1.0000      -6.047544      -164.5620
  49   1.0000      -3.915980      -106.5592
  50   1.0000      -3.781268      -102.8935
  51   1.0000      -2.634019       -71.6753
  52   1.0000      -2.631649       -71.6108
  53   1.0000      -2.620541       -71.3085
  54   1.0000      -2.537930       -69.0606
  55   1.0000      -2.477157       -67.4069
  56   1.0000      -2.473930       -67.3191
  57   1.0000      -1.177779       -32.0490
  58   1.0000      -1.166848       -31.7515
  59   1.0000      -1.159946       -31.5637
  60   1.0000      -1.154897       -31.4263
  61   1.0000      -1.136565       -30.9275
  62   1.0000      -1.124046       -30.5869
  63   1.0000      -1.080250       -29.3951
  64   1.0000      -1.006938       -27.4002
  65   1.0000      -1.003325       -27.3018
  66   1.0000      -0.997891       -27.1540
  67   1.0000      -0.860992       -23.4288
  68   1.0000      -0.856561       -23.3082
  69   1.0000      -0.851188       -23.1620
  70   1.0000      -0.834768       -22.7152
  71   1.0000      -0.799953       -21.7678
  72   1.0000      -0.783535       -21.3211
  73   1.0000      -0.730906       -19.8890
  74   1.0000      -0.711639       -19.3647
  75   1.0000      -0.704636       -19.1741
  76   1.0000      -0.687822       -18.7166
  77   1.0000      -0.682718       -18.5777
  78   1.0000      -0.674937       -18.3660
  79   1.0000      -0.671182       -18.2638
  80   1.0000      -0.664412       -18.0796
  81   1.0000      -0.649697       -17.6791
  82   1.0000      -0.645173       -17.5561
  83   1.0000      -0.634348       -17.2615
  84   1.0000      -0.632849       -17.2207
  85   1.0000      -0.606454       -16.5024
  86   1.0000      -0.593328       -16.1453
  87   1.0000      -0.580273       -15.7900
  88   1.0000      -0.559520       -15.2253
  89   1.0000      -0.550553       -14.9813
  90   1.0000      -0.543916       -14.8007
  91   1.0000      -0.539753       -14.6874
  92   1.0000      -0.528691       -14.3864
  93   1.0000      -0.527040       -14.3415
  94   1.0000      -0.523433       -14.2433
  95   1.0000      -0.522579       -14.2201
  96   1.0000      -0.517312       -14.0768
  97   1.0000      -0.516075       -14.0431
  98   1.0000      -0.510738       -13.8979
  99   1.0000      -0.509896       -13.8750
 100   1.0000      -0.509727       -13.8704
 101   1.0000      -0.509266       -13.8578
 102   1.0000      -0.507666       -13.8143
 103   1.0000      -0.505559       -13.7570
 104   1.0000      -0.489765       -13.3272
 105   1.0000      -0.486494       -13.2382
 106   1.0000      -0.483438       -13.1550
 107   1.0000      -0.482562       -13.1312
 108   1.0000      -0.478118       -13.0103
 109   1.0000      -0.466302       -12.6887
 110   1.0000      -0.452159       -12.3039
 111   1.0000      -0.449900       -12.2424
 112   1.0000      -0.445906       -12.1337
 113   1.0000      -0.440617       -11.9898
 114   1.0000      -0.437113       -11.8944
 115   1.0000      -0.429383       -11.6841
 116   1.0000      -0.426991       -11.6190
 117   1.0000      -0.424785       -11.5590
 118   1.0000      -0.414370       -11.2756
 119   1.0000      -0.412987       -11.2379
 120   1.0000      -0.402986       -10.9658
 121   1.0000      -0.399434       -10.8691
 122   1.0000      -0.381412       -10.3787
 123   1.0000      -0.368443       -10.0258
 124   1.0000      -0.367227        -9.9927
 125   1.0000      -0.361535        -9.8379
 126   1.0000      -0.347507        -9.4561
 127   1.0000      -0.344625        -9.3777
 128   1.0000      -0.340172        -9.2565
 129   1.0000      -0.337783        -9.1915
 130   1.0000      -0.330602        -8.9961
 131   1.0000      -0.328016        -8.9258
 132   1.0000      -0.325096        -8.8463
 133   1.0000      -0.313614        -8.5339
 134   1.0000      -0.303572        -8.2606
 135   1.0000      -0.300426        -8.1750
 136   1.0000      -0.287856        -7.8330
 137   1.0000      -0.280885        -7.6433
 138   1.0000      -0.278290        -7.5727
 139   1.0000      -0.250597        -6.8191
 140   1.0000      -0.239606        -6.5200
 141   1.0000      -0.229416        -6.2427
 142   1.0000      -0.213204        -5.8016
 143   1.0000      -0.207780        -5.6540
 144   1.0000      -0.202176        -5.5015
 145   1.0000      -0.196962        -5.3596
 146   1.0000      -0.190672        -5.1884
 147   0.0000       0.043916         1.1950
 148   0.0000       0.051694         1.4067
 149   0.0000       0.056577         1.5395
 150   0.0000       0.061016         1.6603
 151   0.0000       0.065344         1.7781

                 SPIN DOWN ORBITALS
  NO   OCC          E(Eh)            E(eV)
   0   1.0000    -258.149456     -7024.6038
   1   1.0000    -258.030937     -7021.3788
   2   1.0000     -89.929354     -2447.1021
   3   1.0000     -89.907780     -2446.5151
   4   1.0000     -89.907529     -2446.5083
   5   1.0000     -30.750680      -836.7685
   6   1.0000     -30.629930      -833.4828
   7   1.0000     -26.474209      -720.3999
   8   1.0000     -26.473725      -720.3867
   9   1.0000     -26.472625      -720.3567
  10   1.0000     -26.359125      -717.2683
  11   1.0000     -26.351083      -717.0494
  12   1.0000     -26.349529      -717.0071
  13   1.0000     -19.677479      -535.4514
  14   1.0000     -19.659568      -534.9640
  15   1.0000     -19.656722      -534.8866
  16   1.0000     -19.639106      -534.4072
  17   1.0000     -19.630675      -534.1778
  18   1.0000     -14.869649      -404.6237
  19   1.0000     -14.865443      -404.5093
  20   1.0000     -14.816202      -403.1694
  21   1.0000     -14.811016      -403.0282
  22   1.0000     -14.791663      -402.5016
  23   1.0000     -10.690906      -290.9143
  24   1.0000     -10.661094      -290.1031
  25   1.0000     -10.651978      -289.8551
  26   1.0000     -10.628982      -289.2293
  27   1.0000     -10.625469      -289.1337
  28   1.0000     -10.623261      -289.0736
  29   1.0000     -10.616975      -288.9026
  30   1.0000     -10.614046      -288.8229
  31   1.0000     -10.610420      -288.7242
  32   1.0000     -10.609430      -288.6973
  33   1.0000     -10.601749      -288.4883
  34   1.0000     -10.600505      -288.4544
  35   1.0000     -10.557592      -287.2867
  36   1.0000     -10.492954      -285.5278
  37   1.0000      -8.211958      -223.4587
  38   1.0000      -8.191713      -222.9078
  39   1.0000      -8.191119      -222.8917
  40   1.0000      -6.069874      -165.1697
  41   1.0000      -6.064708      -165.0291
  42   1.0000      -6.064600      -165.0261
  43   1.0000      -6.046591      -164.5361
  44   1.0000      -6.046059      -164.5216
  45   1.0000      -6.045874      -164.5166
  46   1.0000      -6.045218      -164.4987
  47   1.0000      -6.045143      -164.4967
  48   1.0000      -6.044840      -164.4885
  49   1.0000      -3.635170       -98.9180
  50   1.0000      -3.544272       -96.4445
  51   1.0000      -2.310191       -62.8635
  52   1.0000      -2.309986       -62.8579
  53   1.0000      -2.308601       -62.8202
  54   1.0000      -2.231345       -60.7180
  55   1.0000      -2.230641       -60.6988
  56   1.0000      -2.219216       -60.3879
  57   1.0000      -1.175353       -31.9830
  58   1.0000      -1.166521       -31.7427
  59   1.0000      -1.159399       -31.5488
  60   1.0000      -1.154304       -31.4102
  61   1.0000      -1.135678       -30.9034
  62   1.0000      -1.123657       -30.5763
  63   1.0000      -1.077072       -29.3086
  64   1.0000      -1.002880       -27.2898
  65   1.0000      -1.002277       -27.2734
  66   1.0000      -0.996875       -27.1264
  67   1.0000      -0.860739       -23.4219
  68   1.0000      -0.856246       -23.2996
  69   1.0000      -0.850502       -23.1433
  70   1.0000      -0.831970       -22.6391
  71   1.0000      -0.798425       -21.7262
  72   1.0000      -0.782281       -21.2869
  73   1.0000      -0.724858       -19.7244
  74   1.0000      -0.710879       -19.3440
  75   1.0000      -0.703797       -19.1513
  76   1.0000      -0.687101       -18.6970
  77   1.0000      -0.681882       -18.5550
  78   1.0000      -0.671596       -18.2751
  79   1.0000      -0.660414       -17.9708
  80   1.0000      -0.649598       -17.6765
  81   1.0000      -0.645292       -17.5593
  82   1.0000      -0.643741       -17.5171
  83   1.0000      -0.630208       -17.1488
  84   1.0000      -0.628841       -17.1116
  85   1.0000      -0.600254       -16.3337
  86   1.0000      -0.590058       -16.0563
  87   1.0000      -0.575785       -15.6679
  88   1.0000      -0.556094       -15.1321
  89   1.0000      -0.540808       -14.7161
  90   1.0000      -0.533119       -14.5069
  91   1.0000      -0.524166       -14.2633
  92   1.0000      -0.521505       -14.1909
  93   1.0000      -0.514476       -13.9996
  94   1.0000      -0.510004       -13.8779
  95   1.0000      -0.509610       -13.8672
  96   1.0000      -0.509252       -13.8574
  97   1.0000      -0.507926       -13.8214
  98   1.0000      -0.505336       -13.7509
  99   1.0000      -0.489224       -13.3125
 100   1.0000      -0.487595       -13.2681
 101   1.0000      -0.482872       -13.1396
 102   1.0000      -0.481949       -13.1145
 103   1.0000      -0.477146       -12.9838
 104   1.0000      -0.467087       -12.7101
 105   1.0000      -0.450301       -12.2533
 106   1.0000      -0.440604       -11.9894
 107   1.0000      -0.436970       -11.8906
 108   1.0000      -0.429419       -11.6851
 109   1.0000      -0.413800       -11.2601
 110   1.0000      -0.412853       -11.2343
 111   1.0000      -0.412298       -11.2192
 112   1.0000      -0.402937       -10.9645
 113   1.0000      -0.389246       -10.5919
 114   1.0000      -0.380517       -10.3544
 115   1.0000      -0.367204        -9.9921
 116   1.0000      -0.362739        -9.8706
 117   1.0000      -0.352905        -9.6030
 118   1.0000      -0.348285        -9.4773
 119   1.0000      -0.340833        -9.2745
 120   1.0000      -0.338789        -9.2189
 121   1.0000      -0.329084        -8.9548
 122   1.0000      -0.324144        -8.8204
 123   1.0000      -0.313454        -8.5295
 124   1.0000      -0.305022        -8.3001
 125   1.0000      -0.299709        -8.1555
 126   1.0000      -0.293503        -7.9866
 127   1.0000      -0.282194        -7.6789
 128   1.0000      -0.278143        -7.5687
 129   1.0000      -0.265293        -7.2190
 130   1.0000      -0.253452        -6.8968
 131   1.0000      -0.244601        -6.6559
 132   1.0000      -0.240017        -6.5312
 133   1.0000      -0.235403        -6.4056
 134   1.0000      -0.230635        -6.2759
 135   1.0000      -0.210364        -5.7243
 136   1.0000      -0.205788        -5.5998
 137   1.0000      -0.191166        -5.2019
 138   0.0000       0.024718         0.6726
 139   0.0000       0.035809         0.9744
 140   0.0000       0.040818         1.1107
 141   0.0000       0.041000         1.1157
 142   0.0000       0.043227         1.1763

MULLIKEN ATOMIC CHARGES AND SPIN POPULATIONS
--------------------------------------------
   0 Fe:    1.312461    4.313190
   1 Fe:    0.567164    3.878104
   2 C :   -0.699000    0.232668
   3 C :    0.103592   -0.005722
   4 H :    0.078662   -0.003955
   5 H :    0.073814   -0.002339
   6 S :   -1.121261    0.191198
   7 S :   -0.697672    0.069083
   8 S :   -1.106736    0.197527
   9 N :   -0.499243    0.050037
  10 C :   -0.224641    0.000487
  11 C :    0.213442   -0.000027
  12 O :   -0.458050    0.036489
  13 O :   -0.411878    0.007105
  14 C :   -0.003429    0.004593
  15 O :   -0.540295    0.000040
  16 C :   -0.013218   -0.001002
  17 O :   -0.502940    0.000055
  18 C :   -0.108374    0.002699
  19 O :   -0.502719    0.005186
  20 H :    0.137441    0.000036
  21 H :    0.139301    0.000441
  22 H :    0.292948   -0.001172
  23 H :    0.280028   -0.001763
  24 H :    0.338281    0.000445
  25 H :    0.315211    0.000010
  26 H :    0.098003    0.000850
  27 H :    0.121585   -0.000144
  28 H :    0.121988    0.000810
  29 H :    0.173555    0.000351
  30 H :    0.154010    0.001154
  31 C :   -0.410955   -0.001410
  32 H :    0.110557    0.002168
  33 H :    0.153176    0.001215
  34 H :    0.137517    0.000498
  35 N :   -0.075340   -0.000347
  36 C :   -0.132556    0.002294
  37 N :   -0.024384    0.000481
  38 C :   -0.219424    0.001460
  39 C :   -0.137894    0.001400
  40 H :    0.154343    0.000466
  41 H :    0.299478    0.000656
  42 H :    0.172579    0.000191
  43 H :    0.173153    0.001259
  44 N :   -0.083705   -0.007034
  45 C :   -0.156900    0.015092
  46 N :   -0.011040    0.000376
  47 C :   -0.124353    0.002816
  48 C :   -0.249708    0.000423
  49 H :    0.179358    0.000576
  50 H :    0.148966    0.000238
  51 H :    0.169516    0.000143
  52 H :    0.295586    0.000604
Sum of atomic charges         :   -2.0000000

LOEWDIN ATOMIC CHARGES AND SPIN POPULATIONS
-------------------------------------------
   0 Fe:    0.532751    4.296111
   1 Fe:    0.236830    3.806051
   2 C :   -1.175664    0.189898
   3 C :    0.157366    0.005472
   4 H :    0.152916    0.002644
   5 H :    0.153963    0.002364
   6 S :   -0.719477    0.215479
   7 S :   -0.453915    0.068619
   8 S :   -0.676042    0.226115
   9 N :    0.027415    0.055159
  10 C :   -0.006517    0.000899
  11 C :   -0.139900    0.002534
  12 O :   -0.271059    0.048702
  13 O :   -0.173021    0.013050
  14 C :   -0.018116    0.001552
  15 O :   -0.116628    0.000180
  16 C :   -0.039864    0.000016
  17 O :   -0.114031    0.000092
  18 C :    0.018055    0.001821
  19 O :   -0.337662    0.004122
  20 H :    0.047548    0.000003
  21 H :    0.046869    0.000337
  22 H :    0.077458    0.001308
  23 H :    0.080736    0.000743
  24 H :    0.074789    0.000013
  25 H :    0.079678   -0.000005
  26 H :    0.062594   -0.000104
  27 H :    0.029115   -0.000090
  28 H :    0.025970    0.000610
  29 H :    0.058091    0.000295
  30 H :    0.043329    0.000927
  31 C :   -0.144037    0.000863
  32 H :    0.008464    0.002018
  33 H :    0.021672    0.001098
  34 H :    0.012875    0.000214
  35 N :   -0.093449    0.016863
  36 C :    0.000511    0.002944
  37 N :    0.162380    0.001039
  38 C :   -0.047251    0.001149
  39 C :   -0.071160    0.001348
  40 H :    0.052191    0.000249
  41 H :    0.110430    0.000290
  42 H :    0.055220    0.000160
  43 H :    0.063169    0.000337
  44 N :   -0.100994    0.013111
  45 C :   -0.005103    0.008219
  46 N :    0.158732    0.001771
  47 C :   -0.069867    0.002277
  48 C :   -0.053377    0.000352
  49 H :    0.063449    0.000192
  50 H :    0.049797    0.000212
  51 H :    0.053781    0.000124
  52 H :    0.108988    0.000258

  Mayer bond orders larger than 0.100000
B(  0-Fe,  2-C ) :   0.4841 B(  0-Fe,  6-S ) :   0.6398 B(  0-Fe,  7-S ) :   0.4607
B(  0-Fe,  8-S ) :   0.5110 B(  0-Fe,  9-N ) :   0.3276 B(  0-Fe, 12-O ) :   0.2301
B(  1-Fe,  6-S ) :   0.8320 B(  1-Fe,  8-S ) :   0.9938 B(  1-Fe, 35-N ) :   0.3237
B(  1-Fe, 44-N ) :   0.3084 B(  2-C ,  3-C ) :   1.0346 B(  2-C ,  4-H ) :   1.0042
B(  2-C ,  5-H ) :   0.9702 B(  3-C , 13-O ) :   0.8248 B(  3-C , 14-C ) :   0.9177
B(  3-C , 26-H ) :   0.9748 B(  7-S , 31-C ) :   0.9853 B(  9-N , 10-C ) :   0.9340
B(  9-N , 22-H ) :   0.9335 B(  9-N , 23-H ) :   0.9357 B( 10-C , 11-C ) :   0.8899
B( 10-C , 29-H ) :   0.9697 B( 10-C , 30-H ) :   0.9892 B( 11-C , 12-O ) :   1.3997
B( 11-C , 19-O ) :   1.7349 B( 13-O , 18-C ) :   0.9916 B( 14-C , 15-O ) :   0.9516
B( 14-C , 16-C ) :   0.9968 B( 14-C , 21-H ) :   0.9490 B( 15-O , 24-H ) :   0.8370
B( 16-C , 17-O ) :   0.9702 B( 16-C , 18-C ) :   0.9465 B( 16-C , 20-H ) :   0.9749
B( 17-O , 25-H ) :   0.8922 B( 18-C , 27-H ) :   0.9609 B( 18-C , 28-H ) :   0.9670
B( 31-C , 32-H ) :   0.9789 B( 31-C , 33-H ) :   0.9596 B( 31-C , 34-H ) :   0.9624
B( 35-N , 36-C ) :   1.5062 B( 35-N , 39-C ) :   1.2536 B( 36-C , 37-N ) :   1.3676
B( 36-C , 43-H ) :   0.9478 B( 37-N , 38-C ) :   1.2474 B( 37-N , 41-H ) :   0.8894
B( 38-C , 39-C ) :   1.6332 B( 38-C , 42-H ) :   0.9631 B( 39-C , 40-H ) :   0.9716
B( 44-N , 45-C ) :   1.4982 B( 44-N , 47-C ) :   1.2487 B( 45-C , 46-N ) :   1.3655
B( 45-C , 49-H ) :   0.9390 B( 46-N , 48-C ) :   1.2460 B( 46-N , 52-H ) :   0.8911
B( 47-C , 48-C ) :   1.6404 B( 47-C , 50-H ) :   0.9742 B( 48-C , 51-H ) :   0.9640

FINAL SINGLE POINT ENERGY     -4919.822078687002

DIPOLE MOMENT
-------------
                                X             Y             Z
Electronic contribution:    -13.32380      -8.47359      14.68745
Nuclear contribution   :     10.36427       0.73622      -7.95927
                        -----------------------------------------
Total Dipole Moment    :     -2.95953      -7.73737       6.72819
                        -----------------------------------------
Magnitude (a.u.)       :     10.67212
Magnitude (Debye)      :     27.12637

Rotational constants in cm-1:     0.004943     0.003058     0.002212
Rotational constants in MHz :   148.191085    91.676218    66.322361

                             ****ORCA TERMINATED NORMALLY****
TOTAL RUN TIME: 2 days 8 hours 7 minutes 42 seconds 997 msec
